/*--------------------------------*- C++ -*----------------------------------*\
  =========                 |
  \\      /  F ield         | OpenFOAM: The Open Source CFD Toolbox
   \\    /   O peration     | Website:  https://openfoam.org
    \\  /    A nd           | Version:  8
     \\/     M anipulation  |
\*---------------------------------------------------------------------------*/
FoamFile
{
    version     2.0;
    format      ascii;
    class       volScalarField;
    location    "600";
    object      epsilon;
}
// * * * * * * * * * * * * * * * * * * * * * * * * * * * * * * * * * * * * * //

dimensions      [0 2 -3 0 0 0 0];

internalField   nonuniform List<scalar> 
4000
(
5.3223e-07
4.85072e-07
4.15395e-07
3.28663e-07
1.60434e-07
1.11026e-07
1.0655e-07
1.1126e-07
1.15816e-07
1.21697e-07
1.30333e-07
1.42851e-07
1.61211e-07
1.87004e-07
2.19584e-07
2.56662e-07
2.95383e-07
3.33041e-07
3.74039e-07
4.40558e-07
6.00842e-07
5.43817e-07
4.19955e-07
3.23051e-07
1.81662e-07
1.06924e-07
1.04295e-07
1.18558e-07
1.31224e-07
1.44141e-07
1.55532e-07
1.66362e-07
1.78972e-07
1.95352e-07
2.14781e-07
2.35304e-07
2.61592e-07
3.05074e-07
3.87524e-07
5.25967e-07
6.46476e-07
6.09729e-07
4.73109e-07
3.26898e-07
2.16977e-07
1.3399e-07
1.00763e-07
1.17316e-07
1.32083e-07
1.46411e-07
1.61051e-07
1.76266e-07
1.87983e-07
1.97014e-07
2.03246e-07
2.06015e-07
2.15847e-07
2.55347e-07
4.17549e-07
5.77431e-07
6.75089e-07
6.65204e-07
5.6253e-07
3.55025e-07
2.52878e-07
1.86696e-07
1.54289e-07
1.38158e-07
1.37212e-07
1.46321e-07
1.59445e-07
1.72496e-07
1.83298e-07
1.90832e-07
1.95013e-07
1.97909e-07
2.21609e-07
3.42265e-07
4.93157e-07
6.14866e-07
6.97529e-07
7.1718e-07
6.69938e-07
5.52679e-07
3.89208e-07
3.61982e-07
3.53313e-07
3.13181e-07
2.63056e-07
2.24646e-07
2.04068e-07
1.99436e-07
2.04754e-07
2.15007e-07
2.38124e-07
2.96211e-07
4.02671e-07
5.1044e-07
6.08734e-07
6.57735e-07
7.18982e-07
7.71656e-07
7.80343e-07
7.55267e-07
7.13242e-07
6.97853e-07
6.76649e-07
6.27865e-07
5.84607e-07
5.62778e-07
5.53863e-07
5.51897e-07
5.57295e-07
5.74766e-07
6.05264e-07
6.39659e-07
6.74085e-07
7.0488e-07
7.20434e-07
6.92126e-07
7.42372e-07
8.30896e-07
8.94805e-07
9.40853e-07
9.74982e-07
1.00173e-06
1.00398e-06
9.60616e-07
9.15495e-07
8.9759e-07
8.94222e-07
8.9465e-07
8.94684e-07
8.93263e-07
8.89658e-07
8.82644e-07
8.69252e-07
8.45584e-07
7.98774e-07
7.13123e-07
7.70457e-07
8.99496e-07
1.01626e-06
1.12423e-06
1.22295e-06
1.30273e-06
1.3422e-06
1.31819e-06
1.26005e-06
1.22786e-06
1.21129e-06
1.19474e-06
1.17331e-06
1.14741e-06
1.11495e-06
1.07369e-06
1.0207e-06
9.52125e-07
8.56174e-07
7.26708e-07
8.08401e-07
9.89052e-07
1.16548e-06
1.32964e-06
1.478e-06
1.59775e-06
1.67158e-06
1.68274e-06
1.62195e-06
1.5698e-06
1.5329e-06
1.49167e-06
1.44178e-06
1.38341e-06
1.31678e-06
1.24061e-06
1.15173e-06
1.04539e-06
9.08479e-07
7.40823e-07
8.60317e-07
1.07514e-06
1.27693e-06
1.44608e-06
1.59111e-06
1.71122e-06
1.80477e-06
1.8654e-06
1.86259e-06
1.81192e-06
1.76054e-06
1.69609e-06
1.62161e-06
1.54042e-06
1.45365e-06
1.36e-06
1.2552e-06
1.13132e-06
9.70612e-07
7.66926e-07
4.85072e-07
4.87603e-07
4.1715e-07
3.32359e-07
1.77813e-07
1.36953e-07
1.48471e-07
1.59449e-07
1.58256e-07
1.57652e-07
1.62461e-07
1.72623e-07
1.91914e-07
2.2412e-07
2.67441e-07
3.13671e-07
3.56567e-07
3.96056e-07
4.40885e-07
4.81774e-07
5.43817e-07
5.50316e-07
4.23714e-07
3.40662e-07
2.20684e-07
1.27404e-07
1.31441e-07
1.57093e-07
1.66166e-07
1.65909e-07
1.66429e-07
1.6996e-07
1.80348e-07
2.00747e-07
2.30032e-07
2.60405e-07
2.83372e-07
3.20876e-07
4.37062e-07
5.80393e-07
6.09729e-07
7.01728e-07
6.29671e-07
4.11161e-07
2.52325e-07
1.64431e-07
1.41915e-07
1.75533e-07
2.00779e-07
2.0768e-07
2.09687e-07
2.08568e-07
2.07609e-07
2.10295e-07
2.17272e-07
2.24442e-07
2.34604e-07
2.83983e-07
4.79218e-07
6.50696e-07
6.65204e-07
7.49757e-07
7.50381e-07
5.00514e-07
3.09861e-07
2.11799e-07
1.73441e-07
1.74747e-07
1.98155e-07
2.20985e-07
2.33086e-07
2.4038e-07
2.44044e-07
2.42954e-07
2.37615e-07
2.30588e-07
2.434e-07
3.35893e-07
5.40387e-07
7.051e-07
7.1718e-07
7.5746e-07
7.89001e-07
6.44316e-07
4.28038e-07
3.21157e-07
2.64269e-07
2.28427e-07
2.10895e-07
2.13263e-07
2.26218e-07
2.41106e-07
2.5469e-07
2.64157e-07
2.70094e-07
2.84258e-07
3.3382e-07
4.54473e-07
6.40637e-07
7.5603e-07
7.71656e-07
7.58299e-07
7.92298e-07
7.75386e-07
6.3813e-07
5.35453e-07
4.56948e-07
3.92623e-07
3.54278e-07
3.41649e-07
3.45193e-07
3.57157e-07
3.7393e-07
3.94786e-07
4.19858e-07
4.51316e-07
5.12727e-07
6.12604e-07
7.27861e-07
7.92549e-07
8.30896e-07
7.65026e-07
7.89281e-07
8.27774e-07
8.31769e-07
7.79492e-07
6.99581e-07
6.10926e-07
5.51359e-07
5.28781e-07
5.28201e-07
5.37874e-07
5.51537e-07
5.66804e-07
5.86659e-07
6.20632e-07
6.63053e-07
7.18755e-07
7.55724e-07
8.09249e-07
8.99496e-07
8.2193e-07
8.47559e-07
9.0922e-07
9.90265e-07
1.04132e-06
1.01375e-06
9.37135e-07
8.59539e-07
8.14628e-07
8.00525e-07
7.95763e-07
7.91548e-07
7.87959e-07
7.8151e-07
7.72074e-07
7.63917e-07
7.6698e-07
7.6114e-07
8.17145e-07
9.89052e-07
1.0175e-06
1.12368e-06
1.2481e-06
1.38199e-06
1.49547e-06
1.53299e-06
1.46898e-06
1.34042e-06
1.26333e-06
1.23246e-06
1.20012e-06
1.15618e-06
1.10231e-06
1.04294e-06
9.83775e-07
9.30034e-07
8.90194e-07
8.44022e-07
8.29486e-07
1.07514e-06
1.36164e-06
1.63929e-06
1.88765e-06
2.11284e-06
2.3078e-06
2.46247e-06
2.56291e-06
2.56893e-06
2.46536e-06
2.34972e-06
2.21571e-06
2.07302e-06
1.92884e-06
1.78571e-06
1.6419e-06
1.49124e-06
1.32292e-06
1.11381e-06
8.53135e-07
4.15395e-07
4.1715e-07
3.75202e-07
2.92217e-07
1.70829e-07
1.51432e-07
1.807e-07
1.99685e-07
1.9558e-07
1.87472e-07
1.82539e-07
1.8648e-07
2.02557e-07
2.35797e-07
2.87759e-07
3.47072e-07
3.99948e-07
4.44397e-07
4.91546e-07
5.16182e-07
4.19955e-07
4.23714e-07
3.68824e-07
3.06044e-07
2.03422e-07
1.36529e-07
1.56352e-07
1.90195e-07
1.98516e-07
1.93689e-07
1.87273e-07
1.83471e-07
1.89351e-07
2.10377e-07
2.45945e-07
2.85578e-07
3.1867e-07
3.67582e-07
4.91371e-07
6.27594e-07
4.73109e-07
6.29671e-07
5.29874e-07
3.63787e-07
2.3582e-07
1.70822e-07
1.65385e-07
2.14316e-07
2.48032e-07
2.57398e-07
2.54889e-07
2.46112e-07
2.37352e-07
2.35598e-07
2.43154e-07
2.55486e-07
2.74968e-07
3.36688e-07
5.34936e-07
7.10054e-07
5.6253e-07
7.50381e-07
6.84439e-07
4.69157e-07
3.00718e-07
2.16654e-07
1.91041e-07
2.09017e-07
2.51747e-07
2.84424e-07
2.98172e-07
3.03909e-07
3.0275e-07
2.93461e-07
2.79434e-07
2.65634e-07
2.68363e-07
3.43087e-07
5.88414e-07
7.7451e-07
6.69938e-07
7.89001e-07
7.5222e-07
5.72042e-07
3.88577e-07
2.87369e-07
2.37289e-07
2.20844e-07
2.33346e-07
2.62245e-07
2.87623e-07
3.0552e-07
3.16974e-07
3.18691e-07
3.09477e-07
2.98953e-07
3.14596e-07
4.22024e-07
6.67269e-07
8.33534e-07
7.80343e-07
7.92298e-07
7.34411e-07
6.29236e-07
4.85876e-07
3.89803e-07
3.27474e-07
2.8901e-07
2.7571e-07
2.82289e-07
2.97723e-07
3.15113e-07
3.31492e-07
3.44201e-07
3.52504e-07
3.64131e-07
4.0716e-07
5.32469e-07
7.41707e-07
8.79341e-07
8.94805e-07
7.89281e-07
6.95604e-07
6.24487e-07
5.59737e-07
5.0306e-07
4.52486e-07
4.10968e-07
3.85748e-07
3.75962e-07
3.77502e-07
3.86639e-07
3.99289e-07
4.12401e-07
4.26743e-07
4.51926e-07
5.05953e-07
6.2061e-07
7.70584e-07
9.11409e-07
1.01626e-06
8.47559e-07
7.69921e-07
7.13956e-07
7.35771e-07
7.52522e-07
7.37929e-07
6.92731e-07
6.39872e-07
6.04161e-07
5.90719e-07
5.89442e-07
5.90666e-07
5.90775e-07
5.91235e-07
5.98388e-07
6.25372e-07
7.0481e-07
7.98886e-07
9.42328e-07
1.16548e-06
1.12368e-06
1.26611e-06
1.47469e-06
1.67225e-06
1.84384e-06
1.85551e-06
1.72438e-06
1.54754e-06
1.4243e-06
1.37122e-06
1.32602e-06
1.26809e-06
1.19705e-06
1.11958e-06
1.04635e-06
1.00623e-06
9.80144e-07
9.45732e-07
9.79033e-07
1.27693e-06
1.63929e-06
1.99208e-06
2.32159e-06
2.62787e-06
2.90073e-06
3.12213e-06
3.27478e-06
3.30622e-06
3.14696e-06
2.95127e-06
2.73631e-06
2.52e-06
2.31242e-06
2.11633e-06
1.92829e-06
1.73921e-06
1.53377e-06
1.28503e-06
9.80598e-07
3.28663e-07
3.32359e-07
2.92217e-07
2.11755e-07
1.43992e-07
1.47986e-07
1.95423e-07
2.27338e-07
2.24046e-07
2.1053e-07
1.98596e-07
1.95207e-07
2.06172e-07
2.33139e-07
2.8449e-07
3.54187e-07
4.2147e-07
4.74817e-07
5.26137e-07
5.41139e-07
3.23051e-07
3.40662e-07
3.06044e-07
2.41952e-07
1.62787e-07
1.25156e-07
1.63727e-07
2.10749e-07
2.20386e-07
2.11632e-07
1.98477e-07
1.88889e-07
1.91075e-07
2.1108e-07
2.501e-07
3.00131e-07
3.49806e-07
4.14828e-07
5.42873e-07
6.66223e-07
3.26898e-07
4.11161e-07
3.63787e-07
2.70797e-07
1.91141e-07
1.56087e-07
1.71411e-07
2.42511e-07
2.85631e-07
2.94383e-07
2.82606e-07
2.62415e-07
2.48082e-07
2.46981e-07
2.60444e-07
2.84388e-07
3.20372e-07
3.98257e-07
5.92784e-07
7.60221e-07
3.55025e-07
5.00514e-07
4.69157e-07
3.47979e-07
2.47809e-07
2.00402e-07
1.9772e-07
2.43542e-07
3.14474e-07
3.51322e-07
3.54068e-07
3.46024e-07
3.3352e-07
3.18427e-07
3.04479e-07
2.94706e-07
2.9886e-07
3.72436e-07
6.41797e-07
8.34049e-07
5.52679e-07
6.44316e-07
5.72042e-07
4.39869e-07
3.23159e-07
2.5878e-07
2.34186e-07
2.49889e-07
3.04302e-07
3.50799e-07
3.66239e-07
3.7066e-07
3.71684e-07
3.63388e-07
3.4325e-07
3.20179e-07
3.18548e-07
4.15348e-07
7.03124e-07
9.05116e-07
7.55267e-07
7.75386e-07
6.29236e-07
4.99861e-07
3.93237e-07
3.27257e-07
2.90822e-07
2.85181e-07
3.12692e-07
3.41707e-07
3.52108e-07
3.57791e-07
3.64019e-07
3.65073e-07
3.57101e-07
3.48676e-07
3.7065e-07
4.96713e-07
7.69688e-07
9.72298e-07
9.40853e-07
8.27774e-07
6.24487e-07
5.19856e-07
4.63777e-07
4.33132e-07
4.11856e-07
4.0229e-07
4.08308e-07
4.07177e-07
3.96274e-07
3.92491e-07
3.95909e-07
3.99895e-07
4.019e-07
4.10859e-07
4.52756e-07
5.83855e-07
8.138e-07
1.03417e-06
1.12423e-06
9.0922e-07
7.13956e-07
7.15502e-07
7.97004e-07
8.7164e-07
8.83262e-07
8.43756e-07
7.87086e-07
7.22135e-07
6.70386e-07
6.50817e-07
6.42031e-07
6.3261e-07
6.21428e-07
6.16136e-07
6.3464e-07
7.26487e-07
8.8105e-07
1.09915e-06
1.32964e-06
1.2481e-06
1.47469e-06
1.75711e-06
2.1365e-06
2.36136e-06
2.30718e-06
2.0896e-06
1.86225e-06
1.70705e-06
1.65294e-06
1.62385e-06
1.57867e-06
1.5061e-06
1.41345e-06
1.32142e-06
1.23993e-06
1.18011e-06
1.10229e-06
1.15963e-06
1.44608e-06
1.88765e-06
2.32159e-06
2.74911e-06
3.15582e-06
3.50923e-06
3.80495e-06
4.02656e-06
4.11314e-06
3.9019e-06
3.59632e-06
3.27884e-06
2.97753e-06
2.70197e-06
2.45285e-06
2.22388e-06
1.99394e-06
1.74348e-06
1.45405e-06
1.1087e-06
1.60434e-07
1.77813e-07
1.70829e-07
1.43992e-07
1.13173e-07
1.21046e-07
1.84317e-07
2.35438e-07
2.33036e-07
2.17314e-07
2.07869e-07
2.11147e-07
2.15407e-07
2.28013e-07
2.63073e-07
3.28113e-07
4.0832e-07
4.77881e-07
5.39075e-07
5.51632e-07
1.81662e-07
2.20684e-07
2.03422e-07
1.62787e-07
1.18799e-07
1.06447e-07
1.63998e-07
2.37514e-07
2.53849e-07
2.38552e-07
2.17348e-07
2.01066e-07
1.97649e-07
2.1182e-07
2.47453e-07
3.03513e-07
3.71763e-07
4.55941e-07
5.8637e-07
6.92488e-07
2.16977e-07
2.52325e-07
2.3582e-07
1.91141e-07
1.49642e-07
1.38307e-07
1.7897e-07
2.89727e-07
3.5326e-07
3.46419e-07
3.06299e-07
2.66956e-07
2.48381e-07
2.50888e-07
2.73012e-07
3.1174e-07
3.68262e-07
4.63477e-07
6.48593e-07
7.99827e-07
2.52878e-07
3.09861e-07
3.00718e-07
2.47809e-07
2.01506e-07
1.87276e-07
2.14161e-07
3.24225e-07
4.56032e-07
4.67623e-07
4.09469e-07
3.60151e-07
3.32387e-07
3.1833e-07
3.1501e-07
3.20408e-07
3.41447e-07
4.25448e-07
6.90656e-07
8.85517e-07
3.89208e-07
4.28038e-07
3.88577e-07
3.23159e-07
2.67433e-07
2.43404e-07
2.61843e-07
3.64478e-07
5.27326e-07
5.59906e-07
4.80608e-07
4.23612e-07
3.99415e-07
3.81745e-07
3.6021e-07
3.37717e-07
3.32734e-07
4.26504e-07
7.44701e-07
9.678e-07
7.13242e-07
6.3813e-07
4.85876e-07
3.93237e-07
3.34515e-07
3.08175e-07
3.22939e-07
4.22133e-07
5.86347e-07
6.12757e-07
5.09898e-07
4.39547e-07
4.13128e-07
3.98487e-07
3.78476e-07
3.56899e-07
3.63225e-07
4.84318e-07
7.97268e-07
1.05929e-06
9.74982e-07
8.31769e-07
5.59737e-07
4.63777e-07
4.42309e-07
4.52238e-07
4.87345e-07
5.89359e-07
7.37233e-07
7.05174e-07
5.66356e-07
4.8146e-07
4.49415e-07
4.3638e-07
4.24579e-07
4.17297e-07
4.42144e-07
5.71406e-07
8.50785e-07
1.15006e-06
1.22295e-06
9.90265e-07
7.35771e-07
7.97004e-07
9.40379e-07
1.04543e-06
1.07661e-06
1.1204e-06
1.15218e-06
1.03038e-06
8.4876e-07
7.55461e-07
7.23904e-07
7.07854e-07
6.90953e-07
6.75007e-07
6.787e-07
7.64439e-07
9.50894e-07
1.24174e-06
1.478e-06
1.38199e-06
1.67225e-06
2.1365e-06
2.5694e-06
2.68327e-06
2.5011e-06
2.27091e-06
2.08758e-06
1.90975e-06
1.79971e-06
1.77236e-06
1.76316e-06
1.72638e-06
1.65623e-06
1.55645e-06
1.44206e-06
1.34209e-06
1.22894e-06
1.31471e-06
1.59111e-06
2.11284e-06
2.62787e-06
3.15582e-06
3.64575e-06
4.08803e-06
4.49e-06
4.83448e-06
5.02932e-06
4.77453e-06
4.29639e-06
3.83199e-06
3.42186e-06
3.06679e-06
2.75984e-06
2.48666e-06
2.21908e-06
1.92912e-06
1.60439e-06
1.22252e-06
1.11026e-07
1.36953e-07
1.51432e-07
1.47986e-07
1.21046e-07
1.03449e-07
1.66054e-07
2.30416e-07
2.30068e-07
2.33476e-07
2.38051e-07
2.45521e-07
2.40207e-07
2.34719e-07
2.41999e-07
2.76671e-07
3.46386e-07
4.34531e-07
5.12144e-07
5.35451e-07
1.06924e-07
1.27404e-07
1.36529e-07
1.25156e-07
1.06447e-07
1.14752e-07
1.72442e-07
2.78534e-07
3.3249e-07
3.07016e-07
2.62811e-07
2.32321e-07
2.18601e-07
2.21419e-07
2.44628e-07
2.94973e-07
3.74397e-07
4.7923e-07
6.14047e-07
6.96542e-07
1.3399e-07
1.64431e-07
1.70822e-07
1.56087e-07
1.38307e-07
1.46888e-07
2.21734e-07
4.04747e-07
5.36612e-07
4.85547e-07
3.5888e-07
2.7687e-07
2.50502e-07
2.54117e-07
2.81908e-07
3.33402e-07
4.10318e-07
5.2391e-07
6.96426e-07
8.20552e-07
1.86696e-07
2.11799e-07
2.16654e-07
2.00402e-07
1.87276e-07
1.99334e-07
2.96709e-07
5.82679e-07
8.60382e-07
7.62798e-07
5.04767e-07
3.59413e-07
3.13849e-07
3.06212e-07
3.18653e-07
3.45302e-07
3.90076e-07
4.86772e-07
7.31789e-07
9.20516e-07
3.61982e-07
3.21157e-07
2.87369e-07
2.5878e-07
2.43404e-07
2.66227e-07
4.0133e-07
8.18716e-07
1.25428e-06
1.09058e-06
6.60145e-07
4.50551e-07
3.8908e-07
3.69808e-07
3.60345e-07
3.54531e-07
3.6322e-07
4.59949e-07
7.75705e-07
1.01643e-06
6.97853e-07
5.35453e-07
3.89803e-07
3.27257e-07
3.08175e-07
3.43991e-07
5.33278e-07
1.06291e-06
1.62482e-06
1.39007e-06
7.93038e-07
5.14317e-07
4.35726e-07
4.11759e-07
3.91578e-07
3.69637e-07
3.70223e-07
4.85895e-07
8.1949e-07
1.12178e-06
1.00173e-06
7.79492e-07
5.0306e-07
4.33132e-07
4.52238e-07
5.34035e-07
7.76536e-07
1.40143e-06
1.88623e-06
1.58821e-06
9.23186e-07
5.98841e-07
5.00024e-07
4.7148e-07
4.52957e-07
4.3607e-07
4.47088e-07
5.68341e-07
8.71007e-07
1.2323e-06
1.30273e-06
1.04132e-06
7.52522e-07
8.7164e-07
1.04543e-06
1.16988e-06
1.35199e-06
1.75949e-06
1.99479e-06
1.71158e-06
1.16463e-06
8.68733e-07
7.82569e-07
7.60843e-07
7.45465e-07
7.25041e-07
7.16466e-07
7.89757e-07
9.88501e-07
1.33921e-06
1.59775e-06
1.49547e-06
1.84384e-06
2.36136e-06
2.68327e-06
2.65716e-06
2.5106e-06
2.52586e-06
2.54731e-06
2.3164e-06
1.97422e-06
1.83037e-06
1.8171e-06
1.81295e-06
1.76993e-06
1.67752e-06
1.55222e-06
1.42857e-06
1.3004e-06
1.41954e-06
1.71122e-06
2.3078e-06
2.90073e-06
3.50923e-06
4.08803e-06
4.65124e-06
5.22471e-06
5.78849e-06
6.1625e-06
5.88011e-06
5.10805e-06
4.41262e-06
3.85217e-06
3.39884e-06
3.02491e-06
2.70392e-06
2.39973e-06
2.0759e-06
1.72264e-06
1.31271e-06
1.0655e-07
1.48471e-07
1.807e-07
1.95423e-07
1.84317e-07
1.66054e-07
1.8914e-07
2.27989e-07
2.56053e-07
2.86994e-07
2.94586e-07
2.95317e-07
2.77909e-07
2.58057e-07
2.43561e-07
2.40744e-07
2.62768e-07
3.22619e-07
4.13465e-07
4.71352e-07
1.04295e-07
1.31441e-07
1.56352e-07
1.63727e-07
1.63998e-07
1.72442e-07
2.20583e-07
3.31809e-07
5.40563e-07
5.12524e-07
3.78187e-07
2.88194e-07
2.57415e-07
2.48572e-07
2.54848e-07
2.83421e-07
3.48215e-07
4.59163e-07
6.08509e-07
6.63138e-07
1.00763e-07
1.41915e-07
1.65385e-07
1.71411e-07
1.7897e-07
2.21734e-07
3.58526e-07
7.19312e-07
1.08871e-06
9.40095e-07
5.3302e-07
3.23328e-07
2.68897e-07
2.64318e-07
2.87115e-07
3.39838e-07
4.27974e-07
5.57779e-07
7.24378e-07
8.09605e-07
1.54289e-07
1.73441e-07
1.91041e-07
1.9772e-07
2.14161e-07
2.96709e-07
5.92982e-07
1.36298e-06
1.88929e-06
1.48723e-06
7.66637e-07
3.97066e-07
3.05209e-07
2.96419e-07
3.18249e-07
3.6233e-07
4.30193e-07
5.40541e-07
7.59679e-07
9.25767e-07
3.53313e-07
2.64269e-07
2.37289e-07
2.34186e-07
2.61843e-07
4.0133e-07
9.54197e-07
2.17221e-06
2.72145e-06
2.04035e-06
1.04606e-06
5.01349e-07
3.65713e-07
3.4544e-07
3.52068e-07
3.6955e-07
4.02617e-07
5.02809e-07
7.94404e-07
1.03365e-06
6.76649e-07
4.56948e-07
3.27474e-07
2.90822e-07
3.22939e-07
5.33278e-07
1.32172e-06
2.87322e-06
3.28058e-06
2.47781e-06
1.31351e-06
6.12631e-07
4.3287e-07
4.00485e-07
3.91489e-07
3.8304e-07
3.89268e-07
4.97156e-07
8.3311e-07
1.14619e-06
1.00398e-06
6.99581e-07
4.52486e-07
4.11856e-07
4.87345e-07
7.76536e-07
1.67656e-06
3.13083e-06
3.38873e-06
2.6713e-06
1.51748e-06
7.3022e-07
5.20211e-07
4.83444e-07
4.70275e-07
4.53889e-07
4.57487e-07
5.67094e-07
8.73409e-07
1.26807e-06
1.3422e-06
1.01375e-06
7.37929e-07
8.83262e-07
1.07661e-06
1.35199e-06
2.01454e-06
2.96747e-06
3.18262e-06
2.68812e-06
1.68802e-06
9.98234e-07
8.06546e-07
7.78809e-07
7.71038e-07
7.51097e-07
7.33524e-07
7.89689e-07
9.90605e-07
1.38248e-06
1.67158e-06
1.53299e-06
1.85551e-06
2.30718e-06
2.5011e-06
2.5106e-06
2.70604e-06
3.1867e-06
3.37362e-06
3.07169e-06
2.32432e-06
1.89583e-06
1.80515e-06
1.80693e-06
1.78237e-06
1.69993e-06
1.56891e-06
1.43334e-06
1.31197e-06
1.47033e-06
1.80477e-06
2.46247e-06
3.12213e-06
3.80495e-06
4.49e-06
5.22471e-06
6.06619e-06
6.95032e-06
7.49949e-06
7.26032e-06
6.0672e-06
5.02776e-06
4.26368e-06
3.69148e-06
3.24373e-06
2.87376e-06
2.53475e-06
2.17955e-06
1.8046e-06
1.37864e-06
1.1126e-07
1.59449e-07
1.99685e-07
2.27338e-07
2.35438e-07
2.30416e-07
2.27989e-07
2.3433e-07
3.00298e-07
3.66538e-07
3.69034e-07
3.53853e-07
3.2235e-07
2.91792e-07
2.68808e-07
2.47968e-07
2.30832e-07
2.27923e-07
2.58542e-07
3.35226e-07
1.18558e-07
1.57093e-07
1.90195e-07
2.10749e-07
2.37514e-07
2.78534e-07
3.31809e-07
5.57932e-07
1.10141e-06
1.01913e-06
5.794e-07
3.53963e-07
3.02735e-07
2.91806e-07
2.91407e-07
2.99238e-07
3.26934e-07
3.99708e-07
5.23392e-07
5.81864e-07
1.17316e-07
1.75533e-07
2.14316e-07
2.42511e-07
2.89727e-07
4.04747e-07
7.19312e-07
1.51953e-06
2.15488e-06
1.66775e-06
9.03308e-07
4.40202e-07
3.11636e-07
2.91474e-07
3.00381e-07
3.36796e-07
4.13352e-07
5.39959e-07
7.10526e-07
7.60028e-07
1.38158e-07
1.74747e-07
2.09017e-07
2.43542e-07
3.24225e-07
5.82679e-07
1.36298e-06
2.72568e-06
2.95205e-06
2.23494e-06
1.31988e-06
5.49664e-07
3.34478e-07
3.04475e-07
3.19437e-07
3.65081e-07
4.43767e-07
5.65499e-07
7.61909e-07
8.95616e-07
3.13181e-07
2.28427e-07
2.20844e-07
2.49889e-07
3.64478e-07
8.18716e-07
2.17221e-06
3.72999e-06
3.49456e-06
2.7251e-06
1.75173e-06
6.81442e-07
3.7687e-07
3.33303e-07
3.44373e-07
3.77313e-07
4.32453e-07
5.38652e-07
7.97589e-07
1.01501e-06
6.27865e-07
3.92623e-07
2.8901e-07
2.85181e-07
4.22133e-07
1.06291e-06
2.87322e-06
4.28815e-06
3.78707e-06
3.09224e-06
2.1172e-06
8.20289e-07
4.42636e-07
3.83757e-07
3.83094e-07
3.92527e-07
4.16417e-07
5.15592e-07
8.27203e-07
1.13067e-06
9.60616e-07
6.10926e-07
4.10968e-07
4.0229e-07
5.89359e-07
1.40143e-06
3.13083e-06
4.3123e-06
3.80834e-06
3.27361e-06
2.32798e-06
9.4848e-07
5.42346e-07
4.79139e-07
4.72804e-07
4.65062e-07
4.68825e-07
5.62594e-07
8.60659e-07
1.2579e-06
1.31819e-06
9.37135e-07
6.92731e-07
8.43756e-07
1.1204e-06
1.75949e-06
2.96747e-06
4.00484e-06
3.73763e-06
3.39146e-06
2.42419e-06
1.16711e-06
8.10559e-07
7.68218e-07
7.68971e-07
7.51612e-07
7.27618e-07
7.63435e-07
9.63557e-07
1.37425e-06
1.68274e-06
1.46898e-06
1.72438e-06
2.0896e-06
2.27091e-06
2.52586e-06
3.1867e-06
4.01739e-06
4.10068e-06
3.89056e-06
2.8404e-06
2.01335e-06
1.78333e-06
1.75728e-06
1.73338e-06
1.65183e-06
1.51228e-06
1.36694e-06
1.26932e-06
1.46606e-06
1.8654e-06
2.56291e-06
3.27478e-06
4.02656e-06
4.83448e-06
5.78849e-06
6.95032e-06
8.10937e-06
8.63659e-06
8.67082e-06
7.10066e-06
5.63708e-06
4.62724e-06
3.92322e-06
3.40049e-06
2.98444e-06
2.61542e-06
2.23346e-06
1.84041e-06
1.40184e-06
1.15816e-07
1.58256e-07
1.9558e-07
2.24046e-07
2.33036e-07
2.30068e-07
2.56053e-07
3.00298e-07
3.62865e-07
4.5443e-07
4.47787e-07
4.1774e-07
3.72009e-07
3.29213e-07
3.06285e-07
2.85373e-07
2.5961e-07
2.29136e-07
1.99403e-07
1.78273e-07
1.31224e-07
1.66166e-07
1.98516e-07
2.20386e-07
2.53849e-07
3.3249e-07
5.40563e-07
1.10141e-06
1.39608e-06
1.15444e-06
7.25378e-07
3.87327e-07
3.27908e-07
3.27222e-07
3.37807e-07
3.50384e-07
3.57351e-07
3.73019e-07
4.32333e-07
4.64094e-07
1.32083e-07
2.00779e-07
2.48032e-07
2.85631e-07
3.5326e-07
5.36612e-07
1.08871e-06
2.15488e-06
1.87256e-06
1.52342e-06
1.31115e-06
5.84741e-07
3.56121e-07
3.27874e-07
3.29991e-07
3.47923e-07
3.93426e-07
4.87425e-07
6.38069e-07
6.82798e-07
1.37212e-07
1.98155e-07
2.51747e-07
3.14474e-07
4.56032e-07
8.60382e-07
1.88929e-06
2.95205e-06
2.14164e-06
1.88964e-06
2.01675e-06
7.56205e-07
3.88663e-07
3.35084e-07
3.34001e-07
3.62722e-07
4.29823e-07
5.47282e-07
7.31153e-07
8.38446e-07
2.63056e-07
2.10895e-07
2.33346e-07
3.04302e-07
5.27326e-07
1.25428e-06
2.72145e-06
3.49456e-06
2.33045e-06
2.29482e-06
2.63647e-06
9.19978e-07
4.28829e-07
3.49412e-07
3.47717e-07
3.77334e-07
4.39614e-07
5.52347e-07
7.84043e-07
9.70423e-07
5.84607e-07
3.54278e-07
2.7571e-07
3.12692e-07
5.86347e-07
1.62482e-06
3.28058e-06
3.78707e-06
2.47756e-06
2.68363e-06
3.04617e-06
1.06318e-06
4.85351e-07
3.8683e-07
3.79953e-07
3.95854e-07
4.33462e-07
5.29754e-07
8.13659e-07
1.09102e-06
9.15495e-07
5.51359e-07
3.85748e-07
4.08308e-07
7.37233e-07
1.88623e-06
3.38873e-06
3.80834e-06
2.59631e-06
2.97388e-06
3.16423e-06
1.16599e-06
5.77252e-07
4.7923e-07
4.69729e-07
4.6774e-07
4.75068e-07
5.51993e-07
8.39253e-07
1.21513e-06
1.26005e-06
8.59539e-07
6.39872e-07
7.87086e-07
1.15218e-06
1.99479e-06
3.18262e-06
3.73763e-06
2.8584e-06
3.26891e-06
3.10566e-06
1.30644e-06
8.12855e-07
7.55513e-07
7.56451e-07
7.36501e-07
7.05225e-07
7.20633e-07
9.19049e-07
1.32995e-06
1.62195e-06
1.34042e-06
1.54754e-06
1.86225e-06
2.08758e-06
2.54731e-06
3.37362e-06
4.10068e-06
3.76722e-06
4.06443e-06
3.2442e-06
2.10775e-06
1.76227e-06
1.70213e-06
1.66069e-06
1.56316e-06
1.40988e-06
1.26345e-06
1.19314e-06
1.42054e-06
1.86259e-06
2.56893e-06
3.30622e-06
4.11314e-06
5.02932e-06
6.1625e-06
7.49949e-06
8.63659e-06
8.78344e-06
9.49943e-06
7.92721e-06
6.10459e-06
4.87254e-06
4.05211e-06
3.46413e-06
3.00574e-06
2.60755e-06
2.21378e-06
1.81378e-06
1.38434e-06
1.21697e-07
1.57652e-07
1.87472e-07
2.1053e-07
2.17314e-07
2.33476e-07
2.86994e-07
3.66538e-07
4.5443e-07
1.47144e-07
1.42166e-07
4.54575e-07
4.0579e-07
3.67248e-07
3.47134e-07
3.33022e-07
3.12466e-07
2.81447e-07
2.41044e-07
1.97532e-07
1.44141e-07
1.65909e-07
1.93689e-07
2.11632e-07
2.38552e-07
3.07016e-07
5.12524e-07
1.01913e-06
1.15444e-06
6.60096e-07
5.27906e-07
3.5046e-07
3.21497e-07
3.29312e-07
3.55368e-07
3.92494e-07
4.23104e-07
4.26652e-07
4.09014e-07
3.74425e-07
1.46411e-07
2.0768e-07
2.57398e-07
2.94383e-07
3.46419e-07
4.85547e-07
9.40095e-07
1.66775e-06
1.52342e-06
1.03771e-06
1.22606e-06
5.52765e-07
3.51289e-07
3.38755e-07
3.49409e-07
3.68297e-07
3.93035e-07
4.43159e-07
5.42727e-07
6.01086e-07
1.46321e-07
2.20985e-07
2.84424e-07
3.51322e-07
4.67623e-07
7.62798e-07
1.48723e-06
2.23494e-06
1.88964e-06
1.61268e-06
1.99556e-06
7.1571e-07
4.04463e-07
3.6289e-07
3.5738e-07
3.68082e-07
4.09932e-07
5.04776e-07
6.75539e-07
7.71467e-07
2.24646e-07
2.13263e-07
2.62245e-07
3.50799e-07
5.59906e-07
1.09058e-06
2.04035e-06
2.7251e-06
2.29482e-06
2.30755e-06
2.55866e-06
8.64584e-07
4.54035e-07
3.82775e-07
3.66641e-07
3.78719e-07
4.29219e-07
5.38901e-07
7.56576e-07
9.15551e-07
5.62778e-07
3.41649e-07
2.82289e-07
3.41707e-07
6.12757e-07
1.39007e-06
2.47781e-06
3.09224e-06
2.68363e-06
2.9447e-06
2.85105e-06
9.87131e-07
5.10703e-07
4.15352e-07
3.93459e-07
3.98586e-07
4.3509e-07
5.31064e-07
7.94983e-07
1.04215e-06
8.9759e-07
5.28781e-07
3.75962e-07
4.07177e-07
7.05174e-07
1.58821e-06
2.6713e-06
3.27361e-06
2.97388e-06
3.36087e-06
2.87238e-06
1.07437e-06
6.00477e-07
5.05995e-07
4.82117e-07
4.70577e-07
4.74898e-07
5.35946e-07
8.14843e-07
1.16474e-06
1.22786e-06
8.14628e-07
6.04161e-07
7.22135e-07
1.03038e-06
1.71158e-06
2.68812e-06
3.39146e-06
3.26891e-06
3.64006e-06
2.78072e-06
1.21895e-06
8.41632e-07
7.90197e-07
7.73399e-07
7.34096e-07
6.86024e-07
6.79727e-07
8.74109e-07
1.28171e-06
1.5698e-06
1.26333e-06
1.4243e-06
1.70705e-06
1.90975e-06
2.3164e-06
3.07169e-06
3.89056e-06
4.06443e-06
4.25533e-06
3.03105e-06
2.03517e-06
1.78556e-06
1.73789e-06
1.67086e-06
1.53861e-06
1.35402e-06
1.18512e-06
1.1292e-06
1.37719e-06
1.81192e-06
2.46536e-06
3.14696e-06
3.9019e-06
4.77453e-06
5.88011e-06
7.26032e-06
8.67082e-06
9.49943e-06
9.83692e-06
7.73928e-06
5.9109e-06
4.74119e-06
3.96363e-06
3.3993e-06
2.95202e-06
2.55853e-06
2.1724e-06
1.7837e-06
1.36878e-06
1.30333e-07
1.62461e-07
1.82539e-07
1.98596e-07
2.07869e-07
2.38051e-07
2.94586e-07
3.69034e-07
4.47787e-07
1.42166e-07
1.38268e-07
4.5082e-07
4.18534e-07
3.98797e-07
3.89861e-07
3.82553e-07
3.68824e-07
3.42033e-07
2.99093e-07
2.41231e-07
1.55532e-07
1.66429e-07
1.87273e-07
1.98477e-07
2.17348e-07
2.62811e-07
3.78187e-07
5.794e-07
7.25378e-07
5.27906e-07
3.21516e-07
2.98268e-07
3.01776e-07
3.10362e-07
3.39175e-07
3.8703e-07
4.43733e-07
4.81935e-07
4.51398e-07
3.11708e-07
1.61051e-07
2.09687e-07
2.54889e-07
2.82606e-07
3.06299e-07
3.5888e-07
5.3302e-07
9.03308e-07
1.31115e-06
1.22606e-06
5.88905e-07
3.46037e-07
3.08066e-07
3.12576e-07
3.31737e-07
3.60422e-07
3.90362e-07
4.18889e-07
4.71402e-07
5.29377e-07
1.59445e-07
2.33086e-07
2.98172e-07
3.54068e-07
4.09469e-07
5.04767e-07
7.66637e-07
1.31988e-06
2.01675e-06
1.99556e-06
8.86748e-07
4.57026e-07
3.74204e-07
3.62001e-07
3.63304e-07
3.71731e-07
3.95016e-07
4.61671e-07
6.10727e-07
7.09713e-07
2.04068e-07
2.26218e-07
2.87623e-07
3.66239e-07
4.80608e-07
6.60145e-07
1.04606e-06
1.75173e-06
2.63647e-06
2.55866e-06
1.14793e-06
5.73435e-07
4.41243e-07
4.05675e-07
3.88857e-07
3.85355e-07
4.15404e-07
5.10343e-07
7.19564e-07
8.64777e-07
5.53863e-07
3.45193e-07
2.97723e-07
3.52108e-07
5.09898e-07
7.93038e-07
1.31351e-06
2.1172e-06
3.04617e-06
2.85105e-06
1.34043e-06
6.83924e-07
5.13342e-07
4.57055e-07
4.22616e-07
4.08064e-07
4.29445e-07
5.19819e-07
7.73418e-07
9.98858e-07
8.94222e-07
5.28201e-07
3.77502e-07
3.96274e-07
5.66356e-07
9.23186e-07
1.51748e-06
2.32798e-06
3.16423e-06
2.87238e-06
1.44374e-06
7.92924e-07
6.21571e-07
5.61805e-07
5.19794e-07
4.85319e-07
4.73007e-07
5.21273e-07
7.89804e-07
1.12395e-06
1.21129e-06
8.00525e-07
5.90719e-07
6.70386e-07
8.4876e-07
1.16463e-06
1.68802e-06
2.42419e-06
3.10566e-06
2.78072e-06
1.55396e-06
1.00643e-06
8.99823e-07
8.74633e-07
8.32837e-07
7.61647e-07
6.84064e-07
6.53111e-07
8.41151e-07
1.24705e-06
1.5329e-06
1.23246e-06
1.37122e-06
1.65294e-06
1.79971e-06
1.97422e-06
2.32432e-06
2.8404e-06
3.2442e-06
3.03105e-06
2.21619e-06
1.90265e-06
1.87619e-06
1.85872e-06
1.76488e-06
1.59059e-06
1.36183e-06
1.15719e-06
1.09471e-06
1.35135e-06
1.76054e-06
2.34972e-06
2.95127e-06
3.59632e-06
4.29639e-06
5.10805e-06
6.0672e-06
7.10066e-06
7.92721e-06
7.73928e-06
6.31316e-06
5.17538e-06
4.371e-06
3.77521e-06
3.30346e-06
2.90124e-06
2.52501e-06
2.14546e-06
1.76531e-06
1.36072e-06
1.42851e-07
1.72623e-07
1.8648e-07
1.95207e-07
2.11147e-07
2.45521e-07
2.95317e-07
3.53853e-07
4.1774e-07
4.54575e-07
4.5082e-07
4.37277e-07
4.27592e-07
4.28589e-07
4.33027e-07
4.33558e-07
4.24671e-07
4.01177e-07
3.57277e-07
2.85778e-07
1.66362e-07
1.6996e-07
1.83471e-07
1.88889e-07
2.01066e-07
2.32321e-07
2.88194e-07
3.53963e-07
3.87327e-07
3.5046e-07
2.98268e-07
2.92204e-07
2.87515e-07
2.96159e-07
3.1995e-07
3.59844e-07
4.1457e-07
4.68294e-07
4.59437e-07
2.68416e-07
1.76266e-07
2.08568e-07
2.46112e-07
2.62415e-07
2.66956e-07
2.7687e-07
3.23328e-07
4.40202e-07
5.84741e-07
5.52765e-07
3.46037e-07
2.89453e-07
2.77746e-07
2.80587e-07
2.96787e-07
3.26226e-07
3.62511e-07
3.94753e-07
4.26951e-07
4.76937e-07
1.72496e-07
2.4038e-07
3.03909e-07
3.46024e-07
3.60151e-07
3.59413e-07
3.97066e-07
5.49664e-07
7.56205e-07
7.1571e-07
4.57026e-07
3.65647e-07
3.4024e-07
3.36953e-07
3.45082e-07
3.58589e-07
3.79262e-07
4.27833e-07
5.53572e-07
6.62977e-07
1.99436e-07
2.41106e-07
3.0552e-07
3.7066e-07
4.23612e-07
4.50551e-07
5.01349e-07
6.81442e-07
9.19978e-07
8.64584e-07
5.73435e-07
4.65487e-07
4.28353e-07
4.08294e-07
3.94991e-07
3.88466e-07
4.04502e-07
4.81988e-07
6.79423e-07
8.26046e-07
5.51897e-07
3.57157e-07
3.15113e-07
3.57791e-07
4.39547e-07
5.14317e-07
6.12631e-07
8.20289e-07
1.06318e-06
9.87131e-07
6.83924e-07
5.67204e-07
5.25824e-07
4.92067e-07
4.53821e-07
4.23074e-07
4.25762e-07
5.04075e-07
7.49811e-07
9.67276e-07
8.9465e-07
5.37874e-07
3.86639e-07
3.92491e-07
4.8146e-07
5.98841e-07
7.3022e-07
9.4848e-07
1.16599e-06
1.07437e-06
7.92924e-07
6.91734e-07
6.63821e-07
6.28405e-07
5.72911e-07
5.14365e-07
4.78112e-07
5.11276e-07
7.6989e-07
1.09697e-06
1.19474e-06
7.95763e-07
5.89442e-07
6.50817e-07
7.55461e-07
8.68733e-07
9.98234e-07
1.16711e-06
1.30644e-06
1.21895e-06
1.00643e-06
9.60817e-07
9.77878e-07
9.65913e-07
9.07531e-07
8.09664e-07
7.02192e-07
6.46335e-07
8.24175e-07
1.22724e-06
1.49167e-06
1.20012e-06
1.32602e-06
1.62385e-06
1.77236e-06
1.83037e-06
1.89583e-06
2.01335e-06
2.10775e-06
2.03517e-06
1.90265e-06
1.92535e-06
1.97275e-06
1.95128e-06
1.84144e-06
1.64815e-06
1.3944e-06
1.16439e-06
1.08474e-06
1.33901e-06
1.69609e-06
2.21571e-06
2.73631e-06
3.27884e-06
3.83199e-06
4.41262e-06
5.02776e-06
5.63708e-06
6.10459e-06
5.9109e-06
5.17538e-06
4.52248e-06
3.99488e-06
3.55966e-06
3.18406e-06
2.83746e-06
2.4881e-06
2.11871e-06
1.74766e-06
1.35272e-06
1.61211e-07
1.91914e-07
2.02557e-07
2.06172e-07
2.15407e-07
2.40207e-07
2.77909e-07
3.2235e-07
3.72009e-07
4.0579e-07
4.18534e-07
4.27592e-07
4.41575e-07
4.58423e-07
4.72645e-07
4.79524e-07
4.75002e-07
4.5424e-07
4.09559e-07
3.27643e-07
1.78972e-07
1.80348e-07
1.89351e-07
1.91075e-07
1.97649e-07
2.18601e-07
2.57415e-07
3.02735e-07
3.27908e-07
3.21497e-07
3.01776e-07
2.87515e-07
2.85317e-07
2.9516e-07
3.14304e-07
3.42729e-07
3.82107e-07
4.27352e-07
4.37593e-07
2.83203e-07
1.87983e-07
2.07609e-07
2.37352e-07
2.48082e-07
2.48381e-07
2.50502e-07
2.68897e-07
3.11636e-07
3.56121e-07
3.51289e-07
3.08066e-07
2.77746e-07
2.64327e-07
2.64968e-07
2.76773e-07
2.99592e-07
3.3344e-07
3.7231e-07
4.08935e-07
4.48774e-07
1.83298e-07
2.44044e-07
3.0275e-07
3.3352e-07