/*--------------------------------*- C++ -*----------------------------------*\
  =========                 |
  \\      /  F ield         | OpenFOAM: The Open Source CFD Toolbox
   \\    /   O peration     | Website:  https://openfoam.org
    \\  /    A nd           | Version:  8
     \\/     M anipulation  |
\*---------------------------------------------------------------------------*/
FoamFile
{
    version     2.0;
    format      ascii;
    class       volScalarField;
    location    "600";
    object      k;
}
// * * * * * * * * * * * * * * * * * * * * * * * * * * * * * * * * * * * * * //

dimensions      [0 2 -2 0 0 0 0];

internalField   nonuniform List<scalar> 
4000
(
4.76227e-05
4.4737e-05
4.03053e-05
3.42587e-05
2.1145e-05
1.67346e-05
1.63057e-05
1.67665e-05
1.72004e-05
1.77568e-05
1.85775e-05
1.97447e-05
2.13882e-05
2.35991e-05
2.62791e-05
2.91901e-05
3.21032e-05
3.48178e-05
3.76473e-05
4.20045e-05
5.16461e-05
4.82968e-05
4.059e-05
3.40955e-05
2.3044e-05
1.63119e-05
1.60903e-05
1.75085e-05
1.87092e-05
1.99065e-05
2.09288e-05
2.18776e-05
2.2959e-05
2.43352e-05
2.59288e-05
2.75645e-05
2.96056e-05
3.28167e-05
3.84849e-05
4.72441e-05
5.4242e-05
5.21533e-05
4.39692e-05
3.44619e-05
2.61412e-05
1.90191e-05
1.57421e-05
1.74234e-05
1.88147e-05
2.01231e-05
2.14318e-05
2.27561e-05
2.37451e-05
2.44981e-05
2.50211e-05
2.52733e-05
2.60888e-05
2.90725e-05
4.04064e-05
5.02615e-05
5.58424e-05
5.52887e-05
4.94007e-05
3.63444e-05
2.90341e-05
2.37816e-05
2.09865e-05
1.95058e-05
1.93708e-05
2.01444e-05
2.12925e-05
2.24314e-05
2.33549e-05
2.39906e-05
2.43448e-05
2.45878e-05
2.64235e-05
3.53199e-05
4.51654e-05
5.24092e-05
5.70838e-05
5.81477e-05
5.55549e-05
4.87417e-05
3.86803e-05
3.69803e-05
3.64782e-05
3.37481e-05
3.01137e-05
2.71341e-05
2.53979e-05
2.4903e-05
2.52411e-05
2.60173e-05
2.78154e-05
3.20933e-05
3.93723e-05
4.61772e-05
5.20065e-05
5.482e-05
5.82589e-05
6.10718e-05
6.15307e-05
6.02046e-05
5.79763e-05
5.722e-05
5.61178e-05
5.34216e-05
5.0934e-05
4.96488e-05
4.91212e-05
4.8998e-05
4.92841e-05
5.02267e-05
5.18769e-05
5.3759e-05
5.56478e-05
5.73399e-05
5.8215e-05
5.67162e-05
5.95279e-05
6.41794e-05
6.7446e-05
6.97656e-05
7.14777e-05
7.28299e-05
7.29801e-05
7.08821e-05
6.86119e-05
6.76692e-05
6.74587e-05
6.74393e-05
6.73962e-05
6.72793e-05
6.70564e-05
6.66708e-05
6.59769e-05
6.47735e-05
6.23771e-05
5.78588e-05
6.10344e-05
6.76883e-05
7.3453e-05
7.86064e-05
8.31871e-05
8.68109e-05
8.85787e-05
8.75248e-05
8.48835e-05
8.33689e-05
8.25656e-05
8.17663e-05
8.07359e-05
7.9501e-05
7.79573e-05
7.59948e-05
7.34572e-05
7.01248e-05
6.53394e-05
5.85922e-05
6.30395e-05
7.2139e-05
8.05162e-05
8.79547e-05
9.443e-05
9.9511e-05
0.000102579
0.000103022
0.00010046
9.82112e-05
9.6603e-05
9.48071e-05
9.263e-05
9.00678e-05
8.71144e-05
8.36941e-05
7.96312e-05
7.46459e-05
6.7984e-05
5.93503e-05
6.5732e-05
7.63064e-05
8.5619e-05
9.30622e-05
9.92225e-05
0.000104187
0.000107969
0.000110371
0.000110209
0.00010811
0.000105987
0.000103317
0.000100208
9.67787e-05
9.30645e-05
8.89912e-05
8.43403e-05
7.869e-05
7.10544e-05
6.07428e-05
4.4737e-05
4.48606e-05
4.03841e-05
3.45145e-05
2.27042e-05
1.93079e-05
2.04133e-05
2.13849e-05
2.12489e-05
2.11459e-05
2.15359e-05
2.24071e-05
2.40287e-05
2.66412e-05
2.99899e-05
3.33847e-05
3.63964e-05
3.90653e-05
4.19764e-05
4.457e-05
4.82968e-05
5.87531e-05
5.06743e-05
4.21087e-05
3.0465e-05
2.40657e-05
2.7985e-05
3.32811e-05
3.52658e-05
3.52245e-05
3.44628e-05
3.3343e-05
3.26621e-05
3.3188e-05
3.50503e-05
3.74396e-05
3.92133e-05
4.1831e-05
4.8947e-05
5.04458e-05
5.21533e-05
7.32515e-05
7.18122e-05
5.27957e-05
3.64893e-05
2.85803e-05
2.98455e-05
3.77158e-05
4.2712e-05
4.43939e-05
4.47547e-05
4.37248e-05
4.19863e-05
4.0344e-05
3.93207e-05
3.86215e-05
3.83073e-05
4.11449e-05
5.51209e-05
5.44323e-05
5.52887e-05
7.80819e-05
8.25843e-05
6.23896e-05
4.39388e-05
3.42552e-05
3.16555e-05
3.52065e-05
4.13593e-05
4.57933e-05
4.76907e-05
4.82748e-05
4.78643e-05
4.63918e-05
4.40189e-05
4.11127e-05
3.97768e-05
4.52997e-05
6.0538e-05
5.742e-05
5.81477e-05
7.92735e-05
8.62826e-05
7.39607e-05
5.46115e-05
4.41039e-05
3.85613e-05
3.61965e-05
3.69827e-05
3.98882e-05
4.28072e-05
4.48284e-05
4.596e-05
4.60705e-05
4.51452e-05
4.41532e-05
4.57386e-05
5.44972e-05
6.8716e-05
6.01462e-05
6.10718e-05
7.97935e-05
8.79917e-05
8.60115e-05
7.21494e-05
6.23055e-05
5.50657e-05
4.95574e-05
4.6839e-05
4.67245e-05
4.7912e-05
4.93863e-05
5.07614e-05
5.19462e-05
5.29525e-05
5.42408e-05
5.87652e-05
6.7798e-05
7.66428e-05
6.20617e-05
6.41794e-05
8.04254e-05
8.94139e-05
9.51642e-05
9.48106e-05
8.98669e-05
8.29915e-05
7.47046e-05
6.84978e-05
6.57043e-05
6.50178e-05
6.52667e-05
6.58358e-05
6.65225e-05
6.78065e-05
7.09839e-05
7.53448e-05
8.02751e-05
8.05978e-05
6.29279e-05
6.76883e-05
8.32658e-05
9.3497e-05
0.00010457
0.000114655
0.000120471
0.000119755
0.000114564
0.000108346
0.000104026
0.000101961
0.000100796
9.97006e-05
9.83434e-05
9.66357e-05
9.4239e-05
9.11827e-05
8.75814e-05
8.08053e-05
6.33404e-05
7.2139e-05
8.95182e-05
0.000103995
0.000118812
0.000132497
0.000142695
0.000146945
0.000144616
0.000137235
0.000130375
0.000125962
0.00012198
0.000117667
0.000112879
0.000107637
0.000101931
9.55925e-05
8.8727e-05
8.0247e-05
6.39911e-05
7.63064e-05
8.93677e-05
0.000101188
0.000111222
0.00011996
0.000127281
0.00013294
0.000136534
0.000136702
0.000132876
0.000128586
0.000123549
0.00011809
0.000112462
0.000106757
0.000100897
9.46004e-05
8.73354e-05
7.78844e-05
6.52371e-05
4.03053e-05
4.03841e-05
3.75867e-05
3.16267e-05
2.21939e-05
2.06884e-05
2.32918e-05
2.48695e-05
2.45047e-05
2.37864e-05
2.33255e-05
2.36197e-05
2.49422e-05
2.75932e-05
3.15262e-05
3.57448e-05
3.93036e-05
4.21764e-05
4.51206e-05
4.66612e-05
4.059e-05
5.06743e-05
4.69193e-05
3.96031e-05
2.96889e-05
2.7244e-05
3.45995e-05
4.23032e-05
4.48714e-05
4.42103e-05
4.20632e-05
3.9074e-05
3.67855e-05
3.6543e-05
3.86369e-05
4.19529e-05
4.50147e-05
4.8852e-05
5.5739e-05
5.31427e-05
4.39692e-05
7.18122e-05
6.69709e-05
5.06671e-05
3.66721e-05
3.18097e-05
3.67912e-05
4.87681e-05
5.64895e-05
5.90096e-05
5.82246e-05
5.52558e-05
5.13401e-05
4.79891e-05
4.61963e-05
4.57699e-05
4.65329e-05
5.08686e-05
6.44372e-05
5.76963e-05
4.94007e-05
8.25843e-05
8.32537e-05
6.43902e-05
4.67033e-05
3.85368e-05
3.88435e-05
4.6626e-05
5.70983e-05
6.39459e-05
6.6186e-05
6.59825e-05
6.397e-05
6.02822e-05
5.57301e-05
5.12391e-05
4.84997e-05
5.29046e-05
7.20572e-05
6.11339e-05
5.55549e-05
8.62826e-05
9.09191e-05
7.58761e-05
5.74907e-05
4.69934e-05
4.28323e-05
4.42502e-05
5.05908e-05
5.80358e-05
6.28318e-05
6.48908e-05
6.50334e-05
6.32174e-05
5.94354e-05
5.47995e-05
5.24419e-05
6.03324e-05
7.99041e-05
6.41942e-05
6.15307e-05
8.79917e-05
9.22791e-05
8.36242e-05
6.8656e-05
5.84326e-05
5.24535e-05
5.0132e-05
5.15821e-05
5.52221e-05
5.86416e-05
6.08386e-05
6.18046e-05
6.14823e-05
5.98932e-05
5.8105e-05
5.9879e-05
7.15117e-05
8.80267e-05
6.65187e-05
6.7446e-05
8.94139e-05
9.27017e-05
8.87914e-05
8.18998e-05
7.61599e-05
7.18096e-05
6.86824e-05
6.7179e-05
6.69035e-05
6.71817e-05
6.76287e-05
6.79343e-05
6.78873e-05
6.77402e-05
6.89043e-05
7.36787e-05
8.45523e-05
9.28156e-05
6.81266e-05
7.3453e-05
9.3497e-05
0.000101316
0.000105315
0.00010975
0.000112908
0.000112726
0.000109352
0.00010452
0.000100498
9.83268e-05
9.72038e-05
9.61859e-05
9.49561e-05
9.37655e-05
9.32961e-05
9.45119e-05
9.75616e-05
9.48217e-05
6.96688e-05
8.05162e-05
0.000103995
0.000129393
0.000156403
0.000178136
0.000192193
0.000194238
0.000185828
0.000173309
0.000164042
0.000159444
0.000155227
0.000150006
0.000143761
0.000136934
0.000130101
0.000123243
0.00011301
9.72426e-05
7.14854e-05
8.5619e-05
0.000101188
0.00011529
0.00012775
0.000138832
0.00014835
0.000155851
0.000160898
0.000161879
0.000156482
0.000149794
0.000142296
0.000134564
0.000126949
0.00011957
0.000112311
0.000104808
9.63757e-05
8.56687e-05
7.15855e-05
3.42587e-05
3.45145e-05
3.16267e-05
2.53934e-05
1.98529e-05
2.03897e-05
2.45441e-05
2.71232e-05
2.68314e-05
2.57005e-05
2.46855e-05
2.43782e-05
2.52784e-05
2.74329e-05
3.13337e-05
3.62744e-05
4.07287e-05
4.40827e-05
4.72157e-05
4.81581e-05
3.40955e-05
4.21087e-05
3.96031e-05
3.29147e-05
2.57246e-05
2.66733e-05
3.72902e-05
4.76384e-05
5.0525e-05
4.87813e-05
4.49676e-05
4.08701e-05
3.79102e-05
3.75324e-05
4.00076e-05
4.44039e-05
4.91364e-05
5.43784e-05
6.08895e-05
5.53066e-05
3.44619e-05
5.27957e-05
5.06671e-05
4.07097e-05
3.22303e-05
3.17466e-05
4.04477e-05
5.67746e-05
6.65005e-05
6.88119e-05
6.60285e-05
6.05244e-05
5.50023e-05
5.11965e-05
4.99081e-05
5.08252e-05
5.34947e-05
5.94599e-05
7.15257e-05
6.03917e-05
3.63444e-05
6.23896e-05
6.43902e-05
5.29423e-05
4.22149e-05
3.91424e-05
4.40615e-05
5.71929e-05
7.25393e-05
8.03305e-05
8.06897e-05
7.77877e-05
7.32784e-05
6.78707e-05
6.25574e-05
5.82013e-05
5.58293e-05
6.07431e-05
8.10846e-05
6.42409e-05
4.87417e-05
7.39607e-05
7.58761e-05
6.52363e-05
5.34199e-05
4.7754e-05
4.84471e-05
5.64358e-05
6.99284e-05
8.01082e-05
8.32366e-05
8.27377e-05
8.05792e-05
7.64987e-05
7.04149e-05
6.36151e-05
5.9218e-05
6.65183e-05
8.95136e-05
6.78409e-05
6.02046e-05
8.60115e-05
8.36242e-05
7.43731e-05
6.39884e-05
5.79717e-05
5.65825e-05
6.05345e-05
6.92804e-05
7.68474e-05
7.95296e-05
7.9544e-05
7.83901e-05
7.57621e-05
7.13175e-05
6.62941e-05
6.50205e-05
7.65197e-05
9.75749e-05
7.11545e-05
6.97656e-05
9.51642e-05
8.87914e-05
8.2564e-05
7.8213e-05
7.68486e-05
7.74576e-05
7.99049e-05
8.39025e-05
8.59428e-05
8.50036e-05
8.35492e-05
8.21564e-05
8.02829e-05
7.77656e-05
7.59719e-05
7.84232e-05
9.03175e-05
0.000103575
7.41436e-05
7.86064e-05
0.00010457
0.000105315
0.000110984
0.000121288
0.000130784
0.000134662
0.000133255
0.000129381
0.00012406
0.000118387
0.000115182
0.000112747
0.000110053
0.000107073
0.000104724
0.000104706
0.000108841
0.000108196
7.72272e-05
8.79547e-05
0.000118812
0.000156403
0.000186972
0.00021601
0.000233203
0.000232076
0.000219284
0.000204611
0.000194053
0.000189309
0.000185815
0.000181185
0.000174691
0.000166784
0.000158888
0.00015064
0.000137478
0.000114228
8.00456e-05
9.30622e-05
0.000111222
0.00012775
0.00014308
0.000156967
0.00016856
0.000177948
0.000184789
0.000187367
0.000180712
0.000170991
0.000160613
0.000150455
0.000140872
0.000131949
0.000123517
0.00011481
0.000104963
9.30133e-05
7.76757e-05
2.1145e-05
2.27042e-05
2.21939e-05
1.98529e-05
1.69733e-05
1.78365e-05
2.36299e-05
2.78036e-05
2.75621e-05
2.62437e-05
2.5437e-05
2.57001e-05
2.60611e-05
2.70786e-05
2.97947e-05
3.45247e-05
3.99277e-05
4.43162e-05
4.80095e-05
4.87984e-05
2.3044e-05
3.0465e-05
2.96889e-05
2.57246e-05
2.16939e-05
2.46357e-05
3.83133e-05
5.23776e-05
5.57013e-05
5.21794e-05
4.64718e-05
4.12616e-05
3.80496e-05
3.74495e-05
3.98866e-05
4.50185e-05
5.15058e-05
5.83426e-05
6.45778e-05
5.67668e-05
2.61412e-05
3.64893e-05
3.66721e-05
3.22303e-05
2.86866e-05
3.19408e-05
4.43193e-05
6.61423e-05
7.81504e-05
7.76853e-05
7.00801e-05
6.12021e-05
5.46668e-05
5.13375e-05
5.14216e-05
5.43338e-05
5.93479e-05
6.68574e-05
7.6828e-05
6.24893e-05
2.90341e-05
4.39388e-05
4.67033e-05
4.22149e-05
3.8414e-05
4.09241e-05
5.12269e-05
7.34419e-05
9.58295e-05
9.9898e-05
9.19076e-05
8.26086e-05
7.50509e-05
6.91332e-05
6.50282e-05
6.27668e-05
6.28239e-05
6.90478e-05
8.72649e-05
6.68784e-05
3.86803e-05
5.46115e-05
5.74907e-05
5.34199e-05
4.92026e-05
5.01938e-05
5.89449e-05
7.97259e-05
0.000105911
0.000113894
0.00010526
9.60851e-05
8.95857e-05
8.3459e-05
7.66676e-05
6.97831e-05
6.53924e-05
7.29142e-05
9.75382e-05
7.09646e-05
5.79763e-05
7.21494e-05
6.8656e-05
6.39884e-05
6.05103e-05
6.15441e-05
6.94882e-05
8.84942e-05
0.000113298
0.000120643
0.000109956
9.98184e-05
9.36342e-05
8.82541e-05
8.16806e-05
7.4568e-05
7.1177e-05
8.18982e-05
0.00010492
7.53715e-05
7.14777e-05
9.48106e-05
8.18998e-05
7.8213e-05
8.02227e-05
8.62418e-05
9.59237e-05
0.000112316
0.000131709
0.000131798
0.000117182
0.000105747
9.94196e-05
9.48467e-05
9.0008e-05
8.55392e-05
8.52245e-05
9.59429e-05
0.000111319
7.96125e-05
8.31871e-05
0.000114655
0.00010975
0.000121288
0.000138803
0.000153052
0.000160637
0.000166875
0.000171459
0.000163176
0.000146631
0.000135523
0.000129999
0.000125942
0.000121743
0.000117657
0.000115451
0.000118116
0.000117753
8.37856e-05
9.443e-05
0.000132497
0.000178136
0.00021601
0.00024804
0.000259444
0.000251711
0.000239157
0.000228907
0.000217948
0.000208726
0.000204074
0.000200975
0.00019637
0.000189708
0.000180896
0.000170034
0.000153885
0.000126027
8.70304e-05
9.92225e-05
0.00011996
0.000138832
0.000156967
0.000172933
0.000186733
0.000198817
0.000208843
0.000214336
0.000206829
0.000192601
0.000178282
0.000165142
0.000153336
0.000142773
0.00013308
0.0001233
0.000112282
9.93074e-05
8.28867e-05
1.67346e-05
1.93079e-05
2.06884e-05
2.03897e-05
1.78365e-05
1.60871e-05
2.20892e-05
2.74603e-05
2.72834e-05
2.74556e-05
2.78081e-05
2.84167e-05
2.80318e-05
2.76301e-05
2.82244e-05
3.08756e-05
3.58597e-05
4.16787e-05
4.645e-05
4.78828e-05
1.63119e-05
2.40657e-05
2.7244e-05
2.66733e-05
2.46357e-05
2.8569e-05
4.06132e-05
5.71582e-05
6.3329e-05
5.77306e-05
4.96511e-05
4.3839e-05
3.99666e-05
3.80907e-05
3.90806e-05
4.35404e-05
5.09684e-05
5.95325e-05
6.63976e-05
5.70232e-05
1.90191e-05
2.85803e-05
3.18097e-05
3.17466e-05
3.19408e-05
3.74962e-05
5.32939e-05
8.11593e-05
9.81533e-05
9.17522e-05
7.45733e-05
6.09801e-05
5.35282e-05
5.03711e-05
5.12802e-05
5.58257e-05
6.30827e-05
7.22328e-05
8.03159e-05
6.35965e-05
2.37816e-05
3.42552e-05
3.85368e-05
3.91424e-05
4.09241e-05
4.79685e-05
6.73298e-05
0.000106634
0.000138979
0.000130827
0.000102704
8.21069e-05
7.16883e-05
6.63313e-05
6.45258e-05
6.54573e-05
6.87986e-05
7.63584e-05
9.10072e-05
6.86608e-05
3.69803e-05
4.41039e-05
4.69934e-05
4.7754e-05
5.01938e-05
5.95701e-05
8.37357e-05
0.000134887
0.000179997
0.000169137
0.00012843
0.000102022
9.01753e-05
8.33534e-05
7.81093e-05
7.3847e-05
7.18257e-05
7.95905e-05
0.000101827
7.3352e-05
5.722e-05
6.23055e-05
5.84326e-05
5.79717e-05
6.15441e-05
7.34191e-05
0.000103296
0.000161678
0.00021359
0.000199624
0.000147412
0.000114929
0.000101745
9.46943e-05
8.79382e-05
8.0914e-05
7.70502e-05
8.688e-05
0.000109915
7.83401e-05
7.28299e-05
8.98669e-05
7.61599e-05
7.68486e-05
8.62418e-05
0.000103277
0.000135611
0.00019457
0.00023621
0.000218281
0.000162307
0.000126816
0.00011249
0.000105695
9.9766e-05
9.38677e-05
9.14875e-05
0.000100367
0.000115799
8.33884e-05
8.68109e-05
0.000120471
0.000112908
0.000130784
0.000153052
0.000171168
0.000191558
0.00022428
0.000244234
0.000227558
0.000183825
0.000154025
0.00014245
0.000137215
0.000132655
0.000127604
0.000123525
0.000124004
0.000122948
8.81244e-05
9.9511e-05
0.000142695
0.000192193
0.000233203
0.000259444
0.000263607
0.000259003
0.000263039
0.000267656
0.00025556
0.000229686
0.000214909
0.000210179
0.000207021
0.000201704
0.000192902
0.000180818
0.000162739
0.000132421
9.1591e-05
0.000104187
0.000127281
0.00014835
0.00016856
0.000186733
0.000203583
0.000220012
0.000235539
0.000245468
0.000237699
0.000216218
0.000195928
0.000178775
0.000164269
0.000151817
0.000140749
0.000129913
0.000117908
0.000104123
8.69004e-05
1.63057e-05
2.04133e-05
2.32918e-05
2.45441e-05
2.36299e-05
2.20892e-05
2.41224e-05
2.73036e-05
2.92538e-05
3.15126e-05
3.20789e-05
3.21582e-05
3.09074e-05
2.94441e-05
2.83604e-05
2.81678e-05
2.98718e-05
3.42326e-05
4.03528e-05
4.40529e-05
1.60903e-05
2.7985e-05
3.45995e-05
3.72902e-05
3.83133e-05
4.06132e-05
4.82209e-05
6.19043e-05
7.94392e-05
7.50521e-05
6.23477e-05
5.25474e-05
4.64694e-05
4.22108e-05
4.02054e-05
4.14102e-05
4.67467e-05
5.57842e-05
6.49553e-05
5.52486e-05
1.57421e-05
2.98455e-05
3.67912e-05
4.04477e-05
4.43193e-05
5.32939e-05
7.26856e-05
0.000111021
0.00013988
0.000126632
9.1558e-05
6.74705e-05
5.64042e-05
5.13293e-05
5.07292e-05
5.47567e-05
6.2836e-05
7.33247e-05
8.12154e-05
6.30837e-05
2.09865e-05
3.16555e-05
3.88435e-05
4.40615e-05
5.12269e-05
6.73298e-05
0.000104613
0.000173736
0.000210159
0.000182319
0.000125767
8.58526e-05
6.95979e-05
6.35003e-05
6.26615e-05
6.58179e-05
7.20275e-05
8.10407e-05
9.23403e-05
6.89686e-05
3.64782e-05
3.85613e-05
4.28323e-05
4.84471e-05
5.89449e-05
8.37357e-05
0.000145502
0.000241103
0.000276048
0.000234862
0.000162087
0.000107421
8.67519e-05
7.9448e-05
7.63847e-05
7.56375e-05
7.7238e-05
8.52113e-05
0.000103433
7.422e-05
5.61178e-05
5.50657e-05
5.24535e-05
5.65825e-05
6.94882e-05
0.000103296
0.000183469
0.000295014
0.00032084
0.000275895
0.000194475
0.000127693
0.000103187
9.49772e-05
8.98542e-05
8.50844e-05
8.2474e-05
9.10774e-05
0.000112636
7.95094e-05
7.29801e-05
8.29915e-05
7.18096e-05
7.74576e-05
9.59237e-05
0.000135611
0.000218637
0.000317667
0.000334831
0.000296822
0.000217892
0.000145241
0.00011878
0.00011074
0.000105464
9.97447e-05
9.63914e-05
0.000103231
0.000117468
8.50225e-05
8.85787e-05
0.000119755
0.000112726
0.000134662
0.000160637
0.000191558
0.000245663
0.000309906
0.000325514
0.000301656
0.000233264
0.000171256
0.000149122
0.000142909
0.000138811
0.000133484
0.000128029
0.000126257
0.000124308
9.00282e-05
0.000102579
0.000146945
0.000194238
0.000232076
0.000251711
0.000259003
0.000276839
0.000310387
0.000325571
0.000313381
0.000262045
0.000225119
0.000213393
0.000209907
0.000205374
0.000196787
0.000183813
0.000165189
0.000134089
9.37652e-05
0.000107969
0.00013294
0.000155851
0.000177948
0.000198817
0.000220012
0.000243058
0.000266082
0.000279753
0.00027358
0.000242541
0.000213782
0.000191335
0.000173611
0.000159089
0.000146607
0.000134754
0.000121807
0.000107399
8.97819e-05
1.67665e-05
2.13849e-05
2.48695e-05
2.71232e-05
2.78036e-05
2.74603e-05
2.73036e-05
2.77143e-05
3.25321e-05
3.71327e-05
3.73239e-05
3.63373e-05
3.41763e-05
3.20111e-05
3.03358e-05
2.87662e-05
2.74318e-05
2.71917e-05
2.95344e-05
3.51576e-05
1.75085e-05
3.32811e-05
4.23032e-05
4.76384e-05
5.23776e-05
5.71582e-05
6.19043e-05
8.12822e-05
0.000111614
0.000107889
8.38517e-05
6.58451e-05
5.65814e-05
5.06389e-05
4.63359e-05
4.37472e-05
4.39645e-05
4.87142e-05
5.61317e-05
5.07179e-05
1.74234e-05
3.77158e-05
4.87681e-05
5.67746e-05
6.61423e-05
8.11593e-05
0.000111021
0.000165426
0.000191992
0.00017005
0.000128102
8.63796e-05
6.57671e-05
5.71342e-05
5.30881e-05
5.35197e-05
5.91514e-05
6.87706e-05
7.79308e-05
6.05546e-05
1.95058e-05
3.52065e-05
4.6626e-05
5.71929e-05
7.34419e-05
0.000106634
0.000173736
0.00025237
0.000254047
0.000224153
0.000175199
0.000106729
7.55636e-05
6.52604e-05
6.21144e-05
6.43859e-05
7.11526e-05
8.09307e-05
9.04468e-05
6.75221e-05
3.37481e-05
3.61965e-05
4.42502e-05
5.64358e-05
7.97259e-05
0.000134887
0.000241103
0.000322728
0.000300974
0.000271626
0.000220499
0.000128837
8.8829e-05
7.74689e-05
7.42935e-05
7.52597e-05
7.95802e-05
8.80912e-05
0.000102405
7.33707e-05
5.34216e-05
4.95574e-05
5.0132e-05
6.05345e-05
8.84942e-05
0.000161678
0.000295014
0.000366424
0.000332713
0.000309383
0.000258391
0.000150762
0.000105122
9.31239e-05
8.8923e-05
8.66942e-05
8.66465e-05
9.39554e-05
0.000112548
7.88204e-05
7.08821e-05
7.47046e-05
6.86824e-05
7.99049e-05
0.000112316
0.00019457
0.000317667
0.000378544
0.000346955
0.000332789
0.000282244
0.000169345
0.000123208
0.000111939
0.000107486
0.000102983
9.96827e-05
0.000104401
0.000116949
8.45996e-05
8.75248e-05
0.000114564
0.000109352
0.000133255
0.000166875
0.00022428
0.000309906
0.000368708
0.000353438
0.000348722
0.000293449
0.000190435
0.000152402
0.000144322
0.000140841
0.000135558
0.000129147
0.000125371
0.000122838
8.9692e-05
0.000103022
0.000144616
0.000185828
0.000219284
0.000239157
0.000263039
0.000310387
0.000362017
0.000370547
0.000370254
0.000304172
0.00023822
0.000214904
0.000208822
0.00020387
0.000194882
0.000180842
0.000162739
0.000132031
9.35908e-05
0.000110371
0.000136534
0.000160898
0.000184789
0.000208843
0.000235539
0.000266082
0.000294785
0.000307248
0.000307949
0.000269384
0.000230747
0.000202085
0.000180823
0.00016419
0.000150359
0.000137603
0.000123821
0.000108818
9.07862e-05
1.72004e-05
2.12489e-05
2.45047e-05
2.68314e-05
2.75621e-05
2.72834e-05
2.92538e-05
3.25321e-05
3.68815e-05
4.29399e-05
4.2573e-05
4.06661e-05
3.76827e-05
3.47793e-05
3.31847e-05
3.16815e-05
2.97525e-05
2.73628e-05
2.49022e-05
2.30229e-05
1.87092e-05
3.52658e-05
4.48714e-05
5.0525e-05
5.57013e-05
6.3329e-05
7.94392e-05
0.000111614
0.000116311
0.000114383
0.000100247
7.48176e-05
6.37383e-05
5.89334e-05
5.50804e-05
5.18005e-05
4.83931e-05
4.62759e-05
4.79247e-05
4.36678e-05
1.88147e-05
4.2712e-05
5.64895e-05
6.65005e-05
7.81504e-05
9.81533e-05
0.00013988
0.000191992
0.000162332
0.000159772
0.0001684
0.000109212
7.63646e-05
6.57483e-05
5.95762e-05
5.61335e-05
5.66235e-05
6.2007e-05
6.97369e-05
5.64553e-05
1.93708e-05
4.13593e-05
5.70983e-05
7.25393e-05
9.58295e-05
0.000138979
0.000210159
0.000254047
0.000196745
0.000203205
0.000236506
0.000135258
8.6952e-05
7.23206e-05
6.53678e-05
6.36502e-05
6.75208e-05
7.59617e-05
8.51592e-05
6.46783e-05
3.01137e-05
3.69827e-05
5.05908e-05
6.99284e-05
0.000105911
0.000179997
0.000276048
0.000300974
0.000225894
0.0002475
0.000292574
0.000158619
9.87051e-05
8.12749e-05
7.48421e-05
7.40052e-05
7.82065e-05
8.68389e-05
9.88114e-05
7.12526e-05
5.0934e-05
4.6839e-05
5.15821e-05
6.92804e-05
0.000113298
0.00021359
0.00032084
0.000332713
0.000251139
0.000288555
0.000330857
0.000178908
0.000112703
9.45885e-05
8.85522e-05
8.64712e-05
8.77997e-05
9.45112e-05
0.000109893
7.70007e-05
6.86119e-05
6.84978e-05
6.7179e-05
8.39025e-05
0.000131709
0.00023621
0.000334831
0.000346955
0.000272801
0.000320373
0.000346904
0.000193758
0.000129541
0.000113446
0.000108024
0.000103927
0.000101082
0.000103918
0.000115003
8.2699e-05
8.48835e-05
0.000108346
0.00010452
0.000129381
0.000171459
0.000244234
0.000325514
0.000353438
0.000302483
0.000349165
0.000346899
0.000207376
0.000155762
0.000145277
0.000141259
0.000135332
0.000127884
0.000122224
0.000119459
8.7771e-05
0.00010046
0.000137235
0.000173309
0.000204611
0.000228907
0.000267656
0.000325571
0.000370547
0.000357327
0.000389752
0.000337518
0.000249332
0.000216281
0.000206971
0.000200297
0.00018964
0.000174018
0.000155751
0.000126992
9.16466e-05
0.000110209
0.000136702
0.000161879
0.000187367
0.000214336
0.000245468
0.000279753
0.000307248
0.000310715
0.000327383
0.000289968
0.000243354
0.000209166
0.000184755
0.000166221
0.00015106
0.000137313
0.000123077
0.000107756
9.00227e-05
1.77568e-05
2.11459e-05
2.37864e-05
2.57005e-05
2.62437e-05
2.74556e-05
3.15126e-05
3.71327e-05
4.29399e-05
4.5858e-05
4.43394e-05
4.30976e-05
4.00055e-05
3.74884e-05
3.61547e-05
3.51973e-05
3.37498e-05
3.14791e-05
2.83728e-05
2.48078e-05
1.99065e-05
3.52245e-05
4.42103e-05
4.87813e-05
5.21794e-05
5.77306e-05
7.50521e-05
0.000107889
0.000114383
0.000105744
9.54112e-05
7.23723e-05
6.49992e-05
6.18006e-05
6.03844e-05
5.96197e-05
5.78439e-05
5.33323e-05
4.68931e-05
3.79084e-05
2.01231e-05
4.43939e-05
5.90096e-05
6.88119e-05
7.76853e-05
9.17522e-05
0.000126632
0.00017005
0.000159772
0.000147841
0.000172161
0.000109627
7.87514e-05
7.05675e-05
6.53388e-05
6.12058e-05
5.79841e-05
5.77286e-05
6.05336e-05
5.19143e-05
2.01444e-05
4.57933e-05
6.39459e-05
8.03305e-05
9.9898e-05
0.000130827
0.000182319
0.000224153
0.000203205
0.000205158
0.00024535
0.000136059
9.29413e-05
7.96243e-05
7.12131e-05
6.5576e-05
6.47529e-05
6.95918e-05
7.79527e-05
6.12329e-05
2.71341e-05
3.98882e-05
5.80358e-05
8.01082e-05
0.000113894
0.000169137
0.000234862
0.000271626
0.0002475
0.000269322
0.000297793
0.000158922
0.000106266
8.90848e-05
7.91839e-05
7.42016e-05
7.52037e-05
8.23944e-05
9.36621e-05
6.8574e-05
4.96488e-05
4.67245e-05
5.52221e-05
7.68474e-05
0.000120643
0.000199624
0.000275895
0.000309383
0.000288555
0.000326196
0.000328254
0.000177722
0.000120166
0.000101135
9.16112e-05
8.6557e-05
8.64548e-05
9.24308e-05
0.000106176
7.4706e-05
6.76692e-05
6.57043e-05
6.69035e-05
8.59428e-05
0.000131798
0.000218281
0.000296822
0.000332789
0.000320373
0.000364309
0.000336923
0.000190929
0.000136277
0.000119411
0.000111074
0.000104738
0.000100807
0.000101999
0.000112488
8.04086e-05
8.33689e-05
0.000104026
0.000100498
0.00012406
0.000163176
0.000227558
0.000301656
0.000348722
0.000349165
0.00038843
0.000332504
0.000204193
0.000162258
0.000151689
0.00014511
0.000136343
0.000126592
0.00011867
0.000115589
8.5638e-05
9.82112e-05
0.000130375
0.000164042
0.000194053
0.000217948
0.00025556
0.000313381
0.000370254
0.000389752
0.000411041
0.000327799
0.000246801
0.000220603
0.000211989
0.000203037
0.00018923
0.000170605
0.000150187
0.000122161
8.97647e-05
0.00010811
0.000132876
0.000156482
0.000180712
0.000206829
0.000237699
0.00027358
0.000307949
0.000327383
0.000335192
0.000285334
0.000238109
0.000205311
0.000181978
0.000164074
0.000149204
0.000135551
0.000121511
0.000106544
8.93369e-05
1.85775e-05
2.15359e-05
2.33255e-05
2.46855e-05
2.5437e-05
2.78081e-05
3.20789e-05
3.73239e-05
4.2573e-05
4.43394e-05
4.31735e-05
4.29269e-05
4.09078e-05
3.96621e-05
3.91056e-05
3.86345e-05
3.7718e-05
3.58734e-05
3.27941e-05
2.83847e-05
2.09288e-05
3.44628e-05
4.20632e-05
4.49676e-05
4.64718e-05
4.96511e-05
6.23477e-05
8.38517e-05
0.000100247
9.54112e-05
7.11627e-05
6.53621e-05
6.3055e-05
6.07217e-05
6.05697e-05
6.1852e-05
6.29456e-05
6.11558e-05
5.2383e-05
3.35582e-05
2.14318e-05
4.47547e-05
5.82246e-05
6.60285e-05
7.00801e-05
7.45733e-05
9.1558e-05
0.000128102
0.0001684
0.000172161
0.000114918
8.33412e-05
7.35276e-05
6.89392e-05
6.57141e-05
6.30345e-05
6.00345e-05
5.65098e-05
5.44348e-05
4.77246e-05
2.12925e-05
4.76907e-05
6.6186e-05
8.06897e-05
9.19076e-05
0.000102704
0.000125767
0.000175199
0.000236506
0.00024535
0.000156983
0.000107241
9.07335e-05
8.22444e-05
7.49225e-05
6.83549e-05
6.39689e-05
6.4554e-05
7.06882e-05
5.79433e-05
2.53979e-05
4.28072e-05
6.28318e-05
8.32366e-05
0.00010526
0.00012843
0.000162087
0.000220499
0.000292574
0.000297793
0.000191611
0.000130105
0.000107835
9.56836e-05
8.52197e-05
7.66121e-05
7.32234e-05
7.73459e-05
8.81034e-05
6.60292e-05
4.91212e-05
4.7912e-05
5.86416e-05
7.95296e-05
0.000109956
0.000147412
0.000194475
0.000258391
0.000330857
0.000328254
0.000217049
0.000150153
0.000124544
0.00011044
9.82409e-05
8.88976e-05
8.50205e-05
8.90912e-05
0.000102412
7.2628e-05
6.74587e-05
6.50178e-05
6.71817e-05
8.50036e-05
0.000117182
0.000162307
0.000217892
0.000282244
0.000346904
0.000336923
0.000231211
0.000166646
0.000142733
0.000129748
0.00011831
0.000107838
0.000100546
9.96638e-05
0.000110105
7.85177e-05
8.25656e-05
0.000101961
9.83268e-05
0.000118387
0.000146631
0.000183825
0.000233264
0.000293449
0.000346899
0.000332504
0.000239962
0.000186541
0.000170969
0.000163214
0.000153637
0.000140834
0.000127173
0.000116354
0.000112617
8.40803e-05
9.6603e-05
0.000125962
0.000159444
0.000189309
0.000208726
0.000229686
0.000262045
0.000304172
0.000337518
0.000327799
0.000266117
0.000235805
0.000228394
0.000222821
0.00021193
0.000194651
0.000172141
0.000148468
0.000119423
8.86282e-05
0.000105987
0.000128586
0.000149794
0.000170991
0.000192601
0.000216218
0.000242541
0.000269384
0.000289968
0.000285334
0.000248844
0.00021774
0.000194342
0.000176057
0.000160898
0.000147437
0.000134332
0.000120484
0.0001058
8.89812e-05
1.97447e-05
2.24071e-05
2.36197e-05
2.43782e-05
2.57001e-05
2.84167e-05
3.21582e-05
3.63373e-05
4.06661e-05
4.30976e-05
4.29269e-05
4.21223e-05
4.15447e-05
4.16384e-05
4.19394e-05
4.19809e-05
4.14107e-05
3.9872e-05
3.68984e-05
3.17585e-05
2.18776e-05
3.3343e-05
3.9074e-05
4.08701e-05
4.12616e-05
4.3839e-05
5.25474e-05
6.58451e-05
7.48176e-05
7.23723e-05
6.53621e-05
6.34138e-05
6.06329e-05
5.91221e-05
5.90983e-05
6.02826e-05
6.20461e-05
6.21597e-05
5.49135e-05
3.03595e-05
2.27561e-05
4.37248e-05
5.52558e-05
6.05244e-05
6.12021e-05
6.09801e-05
6.74705e-05
8.63796e-05
0.000109212
0.000109627
8.33412e-05
7.3423e-05
6.87142e-05
6.51309e-05
6.25367e-05
6.08169e-05
5.88412e-05
5.5515e-05
5.11709e-05
4.45194e-05
2.24314e-05
4.82748e-05
6.59825e-05
7.77877e-05
8.26086e-05
8.21069e-05
8.58526e-05
0.000106729
0.000135258
0.000136059
0.000107241
9.29991e-05
8.55415e-05
7.98409e-05
7.44864e-05
6.87726e-05
6.35176e-05
6.134e-05
6.49453e-05
5.53738e-05
2.4903e-05
4.48284e-05
6.48908e-05
8.27377e-05
9.60851e-05
0.000102022
0.000107421
0.000128837
0.000158619
0.000158922
0.000130105
0.000115739
0.000106977
9.83258e-05
8.89354e-05
7.93761e-05
7.28397e-05
7.36691e-05
8.31138e-05
6.40435e-05
4.8998e-05
4.93863e-05
6.08386e-05
7.9544e-05
9.98184e-05
0.000114929
0.000127693
0.000150762
0.000178908
0.000177722
0.000150153
0.000136331
0.000127884
0.000118006
0.000105664
9.32457e-05
8.52798e-05
8.64004e-05
9.90535e-05
7.10861e-05
6.74393e-05
6.52667e-05
6.76287e-05
8.35492e-05
0.000105747
0.000126816
0.000145241
0.000169345
0.000193758
0.000190929
0.000166646
0.000155511
0.000149495
0.000140592
0.000127712
0.00011359
0.000102077
9.82921e-05
0.000108297
7.72501e-05
8.17663e-05
0.000100796
9.72038e-05
0.000115182
0.000135523
0.000154025
0.000171256
0.000190435
0.000207376
0.000204193
0.000186541
0.000180956
0.000179718
0.00017438
0.000163417
0.000147608
0.000130177
0.00011616
0.000111094
8.31811e-05
9.48071e-05
0.00012198
0.000155227
0.000185815
0.000204074
0.000214909
0.000225119
0.00023822
0.000249332
0.000246801
0.000235805
0.000234698
0.000235318
0.00023068
0.000219059
0.00020035
0.000175622
0.000149519
0.000118661
8.80846e-05
0.000103317
0.000123549
0.000142296
0.000160613
0.000178282
0.000195928
0.000213782
0.000230747
0.000243354
0.000238109
0.00021774
0.000198839
0.000182879
0.000169176
0.000156919
0.000145222
0.000132996
0.000119471
0.000105092
8.86346e-05
2.13882e-05
2.40287e-05
2.49422e-05
2.52784e-05
2.60611e-05
2.80318e-05
3.09074e-05
3.41763e-05
3.76827e-05
4.00055e-05
4.09078e-05
4.15447e-05
4.24679e-05
4.35422e-05
4.44291e-05
4.485e-05
4.45629e-05
4.32533e-05
4.03626e-05
3.47586e-05
2.2959e-05
3.26621e-05
3.67855e-05
3.79102e-05
3.80496e-05
3.99666e-05
4.64694e-05
5.65814e-05
6.37383e-05
6.49992e-05
6.3055e-05
6.06329e-05
5.90136e-05
5.845e-05
5.84931e-05
5.88651e-05
5.93778e-05
5.90265e-05
5.35354e-05
3.147e-05
2.37451e-05
4.19863e-05
5.13401e-05
5.50023e-05
5.46668e-05
5.35282e-05
5.64042e-05
6.57671e-05
7.63646e-05
7.87514e-05
7.35276e-05
6.87142e-05
6.51203e-05
6.25108e-05
6.04243e-05
5.864e-05
5.69102e-05
5.44245e-05
5.02955e-05
4.2746e-05
2.33549e-05
4.78643e-05
6.397e-05
7.32784e-05
7.50509e-05
7.16883e-05