/*--------------------------------*- C++ -*----------------------------------*\
  =========                 |
  \\      /  F ield         | OpenFOAM: The Open Source CFD Toolbox
   \\    /   O peration     | Website:  https://openfoam.org
    \\  /    A nd           | Version:  8
     \\/     M anipulation  |
\*---------------------------------------------------------------------------*/
FoamFile
{
    version     2.0;
    format      ascii;
    class       surfaceScalarField;
    location    "600";
    object      phi;
}
// * * * * * * * * * * * * * * * * * * * * * * * * * * * * * * * * * * * * * //

dimensions      [1 0 -1 0 0 0 0];

internalField   nonuniform List<scalar> 
11200
(
0.00283098
-0.00563206
0.00283098
0.00364608
-0.00318244
0.00236732
0.0023583
-0.000395018
0.00168278
-0.000846531
0.00222647
0.00097827
-0.00329826
0.00217668
0.00027486
-0.00321854
3.94218e-05
-0.000119188
-0.00233597
-0.000653175
-0.000229393
-0.00152749
-0.000512742
-0.000295746
-0.000898812
-0.000230802
-0.000397894
-0.000417707
7.11543e-05
-0.0005523
-5.27223e-05
0.000375668
-0.000740703
0.000180281
0.000680211
-0.000913271
0.00017833
0.000990449
-0.000988561
-0.000203359
0.00128103
-0.000899397
-0.00102237
0.00148737
-0.000668405
-0.00214607
0.00154489
-0.00042121
-0.0033275
0.00142716
-0.000245742
-0.00404877
0.000799413
-7.81427e-05
-0.00336245
-0.000998232
0.000311911
-0.0041984
0.000835953
0.00139871
-0.0084295
0.00139871
0.00207789
-0.0051934
0.00133175
0.00160879
-0.000865724
0.000939785
0.000226813
0.00302186
0.000586539
-0.00120828
0.00323252
0.000379126
-0.00188297
0.000560394
0.000153728
-0.00170464
-0.000876431
4.49573e-05
-0.0013649
-0.00088519
3.27247e-05
-0.00107764
-0.000517897
-1.47694e-07
-0.000874478
-2.33558e-05
-0.000108656
-0.000641542
0.000388112
-0.000245394
-0.000408791
0.000824183
-0.000376749
-0.000215558
0.00126507
-0.000467891
-0.000142234
0.00168389
-0.00047622
-0.000302771
0.00201026
-0.000362382
-0.000735499
0.00212565
-0.00014805
-0.00140346
0.00200485
9.02613e-05
-0.00181125
0.000787594
0.000419596
-0.00135038
-0.00241447
0.000955363
-0.00700321
0.00145442
0.000683323
-0.00979617
0.000683323
0.00108292
-0.00651897
0.000925946
0.00148344
-0.00211184
0.000845583
0.00142313
0.00248928
0.000592863
0.0010198
0.0031476
0.000488175
0.00018206
0.00109821
0.000299933
-0.000444293
-0.000299116
4.90532e-05
-0.0005654
-0.000736659
-2.73987e-05
-0.000501189
-0.000618656
3.65655e-05
-0.000441905
-0.000139543
5.69065e-05
-0.000406713
0.000377134
-2.42236e-05
-0.000309779
0.000837249
-0.000110018
-0.000132831
0.00126424
-0.000176137
8.40378e-05
0.00165658
-0.000189588
0.000262391
0.00194307
-0.000111189
0.00025364
0.00203621
9.81648e-05
0.000381419
0.00152048
0.000356581
0.000538653
-0.000291985
0.000922317
0.000382086
-0.00376895
0.00151103
-0.00838876
0.00176761
0.000315448
-0.0104271
0.000315448
0.000374769
-0.00740215
0.000823827
0.00098322
-0.0037913
0.00107099
0.00210069
0.000280254
0.00109152
0.00262558
0.00169101
0.000931665
0.00244006
0.000521685
0.000762051
0.00177559
-0.00017872
0.000544088
0.00115499
-0.000413769
0.000297737
0.000779542
-0.000413528
0.000170341
0.000608332
-0.000163063
0.000194743
0.000537973
0.000193734
0.000253755
0.00053066
0.000570346
0.000274202
0.000613219
0.000918155
0.000263501
0.000803639
0.00120086
0.000265274
0.00107423
0.00132813
0.000344327
0.00146353
0.00108303
0.000563851
0.00196298
5.86137e-05
0.000962379
0.00212294
-0.00200449
0.00155252
0.00136707
-0.00486109
0.00184799
-0.00897
0.00194829
4.68064e-05
-0.0105207
4.68064e-05
-0.000211824
-0.00792314
0.000779581
-9.6562e-05
-0.00515684
0.00125025
0.00117809
-0.00263342
0.001639
0.00234414
-0.00114203
0.00166696
0.00265339
-0.00141382
0.00162624
0.00260204
-0.00158136
0.001454
0.00237656
-0.00135559
0.00116732
0.00213878
-0.00108312
0.000907417
0.00202396
-0.000873491
0.000825301
0.00199504
-0.00064694
0.000869631
0.00202375
-0.00040833
0.000949977
0.0021374
-0.000218898
0.00102338
0.0023977
-0.000149287
0.00108982
0.00285711
-0.000328406
0.00119709
0.00340253
-0.000883726
0.00142131
0.0036073
-0.00190869
0.00176249
0.00307253
-0.00340354
0.00193379
0.00190189
-0.00565079
0.00196031
-0.00903983
0.00197168
-0.000152923
-0.0102149
-0.000152923
-0.000661179
-0.00811753
0.000702611
-0.000871113
-0.00611396
0.00116702
-0.000446888
-0.00460396
0.00154628
0.000382546
-0.00372248
0.00175099
0.000952312
-0.00363026
0.00164665
0.00139608
-0.00352126
0.0014961
0.00179638
-0.00313594
0.00138002
0.00217898
-0.00278994
0.0013242
0.00260563
-0.00262785
0.00132768
0.00308095
-0.0025167
0.00139442
0.00357518
-0.00240975
0.00150717
0.00405099
-0.00232626
0.00163155
0.00447335
-0.0023178
0.00174612
0.00475739
-0.0024574
0.00184493
0.0047562
-0.00280522
0.00192265
0.00433398
-0.00343371
0.00194721
0.00347944
-0.00443659
0.00188756
0.00212105
-0.00610331
0.00181087
-0.00875285
0.00183404
-0.000376321
-0.00946233
-0.000376321
-0.00111382
-0.00787618
0.000496115
-0.00149688
-0.00654619
0.000815254
-0.00137432
-0.00570583
0.000979274
-0.000850193
-0.00526805
0.00102141
-0.000230948
-0.00516356
0.000914018
0.000494472
-0.00504109
0.000794372
0.00124093
-0.00468555
0.000803117
0.00193852
-0.00439468
0.00090712
0.00262638
-0.00431643
0.00100069
0.00330555
-0.00428034
0.00108444
0.00394447
-0.0042239
0.00117519
0.00449632
-0.00414586
0.00126771
0.00489951
-0.00407019
0.00134917
0.00508306
-0.00405407
0.00141309
0.00498035
-0.00414674
0.0014442
0.00452238
-0.00441759
0.00144181
0.00364375
-0.00498703
0.00142904
0.00222891
-0.00612326
0.00143476
-0.00808711
0.00156314
-0.000743867
-0.00797463
-0.000743867
-0.00173014
-0.00681003
-7.9917e-05
-0.00227123
-0.00600125
-3.87963e-06
-0.00226793
-0.00560896
-0.000100204
-0.00181737
-0.00546582
-0.000252831
-0.00107369
-0.00545968
-0.000447599
-0.000112466
-0.00541882
-0.000583527
0.000932607
-0.00516917
-0.000561482
0.0018417
-0.00491927
-0.000384542
0.00269771
-0.00492315
-0.000249334
0.00351908
-0.0049343
-0.000167449
0.00426287
-0.00487765
-9.00928e-05
0.00487098
-0.0047647
1.07009e-05
0.00529284
-0.00462191
0.000129812
0.00548333
-0.00449108
0.000246484
0.00538429
-0.00441528
0.000367538
0.00491916
-0.00445447
0.000501982
0.00398512
-0.00471069
0.000657669
0.00243837
-0.00541224
0.000835678
-0.00677607
0.0011273
-0.0014059
-0.00516287
-0.0014059
-0.00265823
-0.00451625
-0.00104148
-0.00329773
-0.00418874
-0.00117305
-0.00333037
-0.00413544
-0.00144092
-0.00286897
-0.00419339
-0.00173386
-0.00201924
-0.00428683
-0.00202261
-0.000862358
-0.00433369
-0.00224204
0.000494625
-0.00423145
-0.00229474
0.00169768
-0.00402259
-0.00209977
0.00279642
-0.00405135
-0.00197059
0.00381724
-0.00406251
-0.00189264
0.00469252
-0.00398614
-0.00176683
0.00537685
-0.00384489
-0.00160419
0.00584849
-0.00367161
-0.00142199
0.00607802
-0.00349509
-0.00122556
0.00601229
-0.0033428
-0.0010068
0.00556442
-0.00324611
-0.000760525
0.00459247
-0.00325939
-0.000479396
0.00287332
-0.00353605
-0.000157073
-0.00429805
0.000395261
-0.00258145
-0.00258145
-0.00419409
-0.00290365
-0.00486121
-0.00352165
-0.00486529
-0.0041314
-0.00434385
-0.00471486
-0.00340285
-0.00522786
-0.00207517
-0.0056614
-0.000363869
-0.00594278
0.00146548
-0.00585197
0.00301991
-0.00560581
0.00435194
-0.00539458
0.00540769
-0.00504192
0.00618702
-0.00462427
0.00670495
-0.00418957
0.00696236
-0.00375255
0.00692867
-0.00330915
0.00651936
-0.00283685
0.0055567
-0.00229676
0.00363581
-0.0016152
-0.000662271
0.00236732
-0.00318244
0.00364608
0.00305594
-0.00137726
0.00305594
0.00194254
0.000761336
0.00203482
-0.000797198
0.00267794
0.00103997
-0.00309483
0.0024273
0.000145013
-0.00310119
0.000118796
-0.000231673
-0.00232196
-0.000661748
-0.000346855
-0.00160302
-0.000580473
-0.000434207
-0.00108139
-0.000342472
-0.000577056
-0.000715298
-0.00010792
-0.000810494
-0.000446893
9.50472e-05
-0.00110419
-0.000296836
0.00033501
-0.00139838
-0.000384881
0.000678889
-0.00157946
-0.000855524
0.00109502
-0.00152382
-0.00174511
0.00143563
-0.00121447
-0.00289438
0.00151868
-0.000790627
-0.00400742
0.00126396
-0.000396676
-0.00450965
0.000410593
1.34967e-05
-0.00361822
-0.0012724
0.000692879
-0.00428149
0.00149923
0.00133175
-0.0051934
0.00207789
0.00199041
-0.00269459
0.00199041
0.00159502
0.000697835
0.00139865
0.000575149
0.00338706
0.000897241
-0.000758097
0.00354736
0.00059219
-0.00162382
0.000905436
0.000232821
-0.00160751
-0.000597564
-3.55151e-05
-0.00130853
-0.000764498
-8.22142e-05
-0.00110076
-0.000396881
-0.000153506
-0.000983719
-1.09145e-05
-0.000322703
-0.000894366
0.000300066
-0.00053977
-0.000810546
0.000613734
-0.000739307
-0.000746168
0.00100722
-0.00086062
-0.000765164
0.00149896
-0.000861194
-0.000962398
0.00195528
-0.000684829
-0.00138841
0.00212898
-0.00033236
-0.00198148
0.00183186
0.000115424
-0.00237068
0.000485909
0.000733476
-0.00178724
-0.00247788
0.0015774
-0.00696693
0.0023526
0.000925946
-0.00651897
0.00108292
0.0015601
-0.00396292
0.0015601
0.00195568
-0.000387506
0.00153532
0.00185189
0.00291765
0.00116604
0.0013873
0.00356538
0.000934672
0.000354945
0.00166176
0.000575968
-0.000390521
9.37243e-05
0.000103238
-0.000585362
-0.000543125
-5.39127e-05
-0.000518719
-0.000373629
-5.33207e-05
-0.000467087
7.29011e-05
-7.85412e-05
-0.000479334
0.000482521
-0.00019444
-0.000489547
0.00082907
-0.000315155
-0.00045083
0.00118112
-0.000388772
-0.000349705
0.00158038
-0.000372152
-0.000243069
0.00194558
-0.000208147
-0.000233671
0.00206418
0.000153546
-0.000228226
0.0015176
0.000665372
-0.000226213
-0.000163877
0.00157008
-0.000183975
-0.00341102
0.00240191
-0.00823372
0.00285041
0.000823827
-0.00740215
0.000374769
0.00131939
-0.00495407
0.00131939
0.00190695
-0.00164524
0.00174114
0.00252934
0.00174174
0.00164501
0.00273467
0.00285069
0.001441
0.00229668
0.00173839
0.0011234
0.00152999
0.000698249
0.000706258
0.00087458
0.000127013
0.000283025
0.000561202
1.16986e-05
9.84026e-05
0.000485741
0.000221809
0.000121299
0.000460171
0.000584767
0.000177072
0.000431679
0.000930543
0.000201206
0.000440193
0.00122644
0.000209644
0.000539983
0.00148718
0.000258658
0.000742666
0.00165443
0.000432768
0.00102493
0.00152266
0.000823076
0.00131504
0.000704544
0.0014853
0.00132912
-0.00104937
0.00242391
0.000744118
-0.0039738
0.00299575
-0.00864604
0.0031047
0.000779581
-0.00792314
-0.000211824
0.00107335
-0.00554163
0.00107335
0.00141957
-0.00258085
0.00183961
0.0022947
0.000354777
0.0021508
0.00295796
0.00176692
0.00208745
0.00302561
0.00140511
0.00189188
0.00272792
0.00088674
0.00156321
0.00227679
0.000610784
0.0011347
0.00191683
0.000506296
0.000772807
0.00174251
0.000569531
0.000651925
0.0017053
0.000772097
0.000719514
0.00173251
0.00100146
0.000851831
0.00180938
0.00118372
0.000989218
0.00196929
0.00127672
0.00114036
0.00224455
0.00120812
0.00136811
0.00258517
0.000830872
0.00177244
0.00269959
-5.1623e-05
0.0024042
0.0022259
-0.00160251
0.00296059
0.00123643
-0.00424912
0.00322508
-0.00855901
0.00312105
0.000702611
-0.00811753
-0.000661179
0.000805716
-0.00574787
0.000805716
0.000851792
-0.00314707
0.00168714
0.00140025
-0.00082707
0.00217965
0.00214144
0.000469308
0.00230738
0.0024463
0.000600435
0.00214643
0.00247976
0.000486886
0.00186249
0.00243998
0.000472453
0.00155814
0.00243611
0.000508826
0.00132554
0.00253031
0.000563148
0.00123988
0.00272281
0.000663007
0.00131101
0.00297298
0.000780454
0.001478
0.0032493
0.000858294
0.00168065
0.00353265
0.000836459
0.00190301
0.00377035
0.000646635
0.00216869
0.0038324
0.00018024
0.0025112
0.00344081
-0.000579101
0.00286625
0.0025711
-0.00191798
0.00307271
0.00138699
-0.00433389
0.00307973
-0.00817309
0.00283509
0.000496115
-0.00787618
-0.00111382
0.000396757
-0.00554919
0.000396757
0.000266738
-0.00340129
0.00119947
0.000544259
-0.00171448
0.00158914
0.00111393
-0.000768097
0.00168911
0.00159662
-0.000518945
0.00155069
0.00195033
-0.000427597
0.00135513
0.00225234
-0.000266148
0.0012397
0.00254486
-0.000102657
0.00122607
0.0028616
-3.38015e-05
0.00128088
0.00321521
3.95241e-06
0.00138988
0.00357502
5.44866e-05
0.00154134
0.00390175
8.25247e-05
0.00171673
0.00415145
2.88149e-05
0.00190709
0.00423263
-0.000127198
0.00210572
0.0040139
-0.000456127
0.00229927
0.00345266
-0.00106114
0.00248507
0.00256703
-0.00219423
0.0025909
0.00139899
-0.00426588
0.00253477
-0.00748756
0.00227657
-7.9917e-05
-0.00681003
-0.00173014
-0.000390027
-0.004929
-0.000390027
-0.000660678
-0.00332326
0.000188708
-0.000543574
-0.00227193
0.000340113
-8.40229e-05
-0.00171513
0.000234629
0.000510451
-0.00155653
-4.50677e-06
0.001196
-0.00142371
-0.000272991
0.0018228
-0.0011772
-0.000277247
0.00233135
-0.000967408
-2.83662e-05
0.00282242
-0.0009341
0.000159876
0.00331475
-0.000981346
0.000325501
0.00375887
-0.00098536
0.000505616
0.00411733
-0.000956412
0.000691149
0.00435276
-0.000942911
0.000866085
0.0044068
-0.000974053
0.00103927
0.00420586
-0.00111291
0.00122523
0.0036984
-0.00147124
0.00141951
0.0028326
-0.00224792
0.00157713
0.00157348
-0.00376928
0.00159817
-0.00624162
0.00145481
-0.00104148
-0.00451625
-0.00265823
-0.00189373
-0.00322454
-0.00189373
-0.00227791
-0.00237304
-0.00173912
-0.00214756
-0.00193004
-0.00191319
-0.00166323
-0.00172389
-0.00220946
-0.000929017
-0.00163824
-0.00267514
1.25225e-05
-0.00152762
-0.00307969
0.00100662
-0.00125406
-0.003212
0.00183082
-0.000920556
-0.00297085
0.00264872
-0.00101666
-0.00270595
0.00343007
-0.0012139
-0.00244146
0.00410083
-0.00130535
-0.00211764
0.00462753
-0.00131501
-0.00177231
0.00498247
-0.00128332
-0.00143656
0.00513564
-0.00124644
-0.00110638
0.00503053
-0.00125387
-0.000760751
0.00460398
-0.00137258
-0.000432677
0.00368712
-0.00172635
-8.41308e-05
0.0021362
-0.00252509
0.000149622
-0.00403174
0.000321554
-0.00290365
-0.00419409
-0.00451594
-0.00451594
-0.00514914
-0.00526152
-0.00512009
-0.00609051
-0.00459759
-0.00696128
-0.00369781
-0.00776591
-0.00243185
-0.00845501
-0.000742776
-0.00888594
0.00126052
-0.00877585
0.00302164
-0.00838363
0.00440117
-0.00798805
0.00542553
-0.00737166
0.00614266
-0.00665645
0.00659653
-0.0059268
0.00680972
-0.00521222
0.00676214
-0.00451547
0.00636294
-0.00381026
0.00539767
-0.00305788
0.00346383
-0.00220649
-0.00123021
0.00168278
-0.000395018
0.0023583
0.00203482
0.000761336
0.00194254
0.000975632
0.00211835
0.000975632
-0.00130385
0.00319955
0.000119783
-0.00302762
0.00217747
-0.000308833
-0.00285754
-4.20445e-05
-0.000359737
-0.00212185
-0.000719576
-0.000362955
-0.00151594
-0.000632453
-0.00040764
-0.00114434
-0.000426246
-0.000522409
-0.000924107
-0.000251461
-0.000779264
-0.000777906
-9.51793e-05
-0.00115523
-0.000708309
9.17842e-05
-0.00155979
-0.000831101
0.000398971
-0.00185567
-0.00132018
0.000868375
-0.00190315
-0.00221921
0.00130911
-0.00162457
-0.00335465
0.00145254
-0.00110772
-0.00439938
0.00115042
-0.000502364
-0.00475579
0.000196145
0.000173761
-0.00373104
-0.00136047
0.0010286
-0.00417987
0.00194806
0.000939785
-0.000865724
0.00160879
0.00139865
0.000697835
0.00159502
0.00116971
0.00257619
0.00116971
0.000450119
0.00406226
0.000754056
-0.000624944
0.00337499
0.000469634
-0.00135313
0.000775059
0.000143917
-0.00138164
-0.000611426
-0.000115136
-0.001177
-0.000746336
-0.000172955
-0.00109389
-0.000381931
-0.000280935
-0.00111857
-5.11269e-05
-0.000498361
-0.00117352
0.000197221
-0.000777228
-0.001216
0.000420485
-0.00102553
-0.00127163
0.000753375
-0.00115942
-0.00138906
0.00126316
-0.00113856
-0.00164334
0.00180894
-0.000930402
-0.00206622
0.00205271
-0.000509669
-0.00256702
0.00166304
0.000103601
-0.00284005
0.000275042
0.000927605
-0.002097
-0.00248492
0.0019588
-0.00678927
0.002865
0.000845583
-0.00211184
0.00148344
0.00153532
-0.000387506
0.00195568
0.00185001
0.00194676
0.00185001
0.00181151
0.00379423
0.00147253
0.00135347
0.00364518
0.00112247
0.000389953
0.00167593
0.000638608
-0.000331535
7.05289e-05
0.000142779
-0.000537221
-0.000563545
-3.10027e-05
-0.000534695
-0.000348172
-8.96014e-05
-0.000575213
8.78741e-05
-0.000177027
-0.000679255
0.000447639
-0.000340823
-0.000798248
0.000722078
-0.000497765
-0.000880836
0.00101617
-0.00056899
-0.000894409
0.00141493
-0.000510367
-0.000862499
0.00184764
-0.000278775
-0.000862761
0.00202699
0.000179507
-0.000932074
0.0015156
0.000882108
-0.000914739
-0.000117645
0.00194542
-0.000744944
-0.00317922
0.0029264
-0.00811515
0.00343133
0.00107099
-0.0037913
0.00098322
0.00174114
-0.00164524
0.00190695
0.0023071
0.000814824
0.0023071
0.00267213
0.00294751
0.00212667
0.00264334
0.00333899
0.00177595
0.00207935
0.0020772
0.00128611
0.00129762
0.000814186
0.000744343
0.000692092
4.35494e-05
0.000281468
0.000444521
-9.08944e-05
8.8705e-05
0.00036759
0.000202666
8.3438e-05
0.000292395
0.000609076
9.08207e-05
0.000188602
0.000945442
8.16233e-05
0.000106612
0.00121706
9.07266e-05
0.00011315
0.00147987
0.000187157
0.000236295
0.00170567
0.000451569
0.000439913
0.00167618
0.000970248
0.000633649
0.000996354
0.00181079
0.000558643
-0.000576869
0.00295812
0.000210169
-0.00353191
0.0036969
-0.00852128
0.00372098
0.00125025
-0.00515684
-9.6562e-05
0.00183961
-0.00258085
0.00141957
0.00233214
-0.000170247
0.00233214
0.00286299
0.00202681
0.00254063
0.00314194
0.00279755
0.00234992
0.00297296
0.0021703
0.00196775
0.00254132
0.00133233
0.00147671
0.00204624
0.000725758
0.000947595
0.0016964
0.000461342
0.000570427
0.00152536
0.000546397
0.00047924
0.00145933
0.000824355
0.00057026
0.0014282
0.00111797
0.000710426
0.00142859
0.00135162
0.000854244
0.00149789
0.00150885
0.00104206
0.00166483
0.00154643
0.00136039
0.00187464
0.00132125
0.00191753
0.0018914
0.000615743
0.00276802
0.00147596
-0.000817337
0.00361648
0.000710466
-0.00359085
0.00404949
-0.00838311
0.00369334
0.00116702
-0.00611396
-0.000871113
0.00168714
-0.00314707
0.000851792
0.00198009
-0.000756169
0.00198009
0.00241849
0.00128497
0.00248307
0.00282738
0.00218948
0.00250654
0.00293273
0.00197839
0.00223299
0.00282845
0.00148203
0.00181708
0.00264792
0.00108627
0.00137817
0.00249755
0.000883953
0.00105331
0.00244514
0.000872394
0.000966301
0.00248522
0.00100148
0.00109382
0.00258052
0.00118407
0.00131659
0.00270849
0.00134221
0.00156206
0.00285907
0.00142246
0.0018388
0.00299979
0.00137173
0.00220264
0.00301065
0.0011042
0.00271736
0.00266281
0.000474852
0.00335495
0.00189467
-0.000819056
0.00384256
0.000927038
-0.00347153
0.00392803
-0.00792894
0.00330794
0.000815254
-0.00654619
-0.00149688
0.00119947
-0.00340129
0.000266738
0.00137096
-0.00109918
0.00137096
0.00167241
0.000708726
0.00186392
0.00210408
0.00150574
0.00194116
0.00241718
0.0014945
0.00172147
0.00260775
0.00124474
0.00140182
0.00272272
0.00107856
0.00113245
0.00280453
0.00101907
0.00100914
0.00291865
0.00098371
0.00105545
0.00308462
0.000986691
0.00123869
0.00327972
0.00104107
0.00148923
0.00346972
0.00111123
0.0017577
0.00361059
0.00114742
0.00204125
0.00362782
0.00109638
0.00236381
0.00340272
0.000884484
0.00274406
0.00283956
0.000366179
0.00315688
0.00199991
-0.000821311
0.00343278
0.00102256
-0.00327319
0.00331375
-0.00719627
0.00256644
-3.87963e-06
-0.00600125
-0.00227123
0.000188708
-0.00332326
-0.000660678
0.000255161
-0.00123211
0.000255161
0.000669208
8.81571e-06
0.000625956
0.00116808
0.000683309
0.000558176
0.00167798
0.000724939
0.00025514
0.0020864
0.000659445
-9.61209e-05
0.00239642
0.000790706
-0.00029942
0.00264953
0.00100257
-0.00026498
0.00292187
0.000947582
-7.63449e-05
0.00322237
0.000756074
0.000255604
0.00351855
0.000659172
0.000591317
0.00376421
0.000646483
0.000910219
0.00390637
0.000658229
0.00121309
0.00388216
0.000641249
0.00151858
0.00362223
0.000520213
0.00184942
0.0031284
9.00816e-05
0.00218942
0.00233347
-0.000817262
0.00236799
0.00128193
-0.00282939
0.00220588
-0.00598541
0.00152586
-0.00117305
-0.00418874
-0.00329773
-0.00173912
-0.00237304
-0.00227791
-0.00176881
-0.00117276
-0.00176881
-0.00139494
-0.000457038
-0.00182123
-0.000761753
-3.11005e-05
-0.00212826
-0.000118988
8.9894e-05
-0.00268287
0.000535413
0.000203094
-0.00327775
0.0012431
0.000484375
-0.00361337
0.00191273
0.000859378
-0.00349729
0.00258985
0.000735167
-0.00317067
0.00321039
0.000416345
-0.00272229
0.00371246
0.000222325
-0.00218289
0.00408933
0.00012998
-0.0016327
0.00433565
9.524e-05
-0.00111992
0.00443324
8.30272e-05
-0.000645776
0.00433098
4.57595e-05
-0.000184059
0.00395212
-0.000185916
0.000222153
0.00327477
-0.00073351
0.00050945
0.00197741
-0.00188616
0.000503743
-0.00388841
0.000201933
-0.00352165
-0.00486121
-0.00526152
-0.00514914
-0.00584792
-0.00584792
-0.00574551
-0.00664999
-0.00515148
-0.00758644
-0.00422187
-0.00860565
-0.00291119
-0.00956262
-0.00110032
-0.0102125
0.00117321
-0.01019
0.00320338
-0.00967865
0.00470342
-0.00907177
0.00573718
-0.00818313
0.00640836
-0.00719769
0.00680543
-0.00622867
0.00698714
-0.00531095
0.00696567
-0.00444829
0.00662805
-0.0036586
0.00573271
-0.00289609
0.00375085
-0.00211082
-0.00136781
0.00097827
0.00222647
-0.000846531
0.00103997
0.00267794
-0.000797198
0.000119783
0.00319955
-0.00130385
-0.00149722
0.00323382
-0.00149722
-0.00253157
0.00172894
-0.00100354
-0.00229144
-0.000188976
-0.000410904
-0.00168985
-0.000788395
-0.000176129
-0.00127334
-0.000697191
-0.000126934
-0.00113709
-0.000501171
-0.000157472
-0.00113803
-0.000342666
-0.00043566
-0.00115578
-0.000203902
-0.000933577
-0.0011839
-9.01235e-06
-0.00152268
-0.00131909
0.000248312
-0.00196881
-0.00175602
0.0006739
-0.00214014
-0.00259141
0.00115604
-0.00194522
-0.00366676
0.00137342
-0.0014058
-0.00462616
0.0010981
-0.00064106
-0.00484105
0.000136146
0.000252513
-0.00372104
-0.00134263
0.00125122
-0.00399512
0.00222214
0.000586539
0.00302186
0.000226813
0.000897241
0.00338706
0.000575149
0.000754056
0.00406226
0.000450119
0.000228702
0.00428443
0.000228702
-0.000455786
0.00278394
9.90459e-05
-0.000919504
0.00039997
1.86988e-05
-0.00100066
-0.000807979
-1.43738e-05
-0.000973385
-0.000867153
-3.02559e-05
-0.00110639
-0.000485111
-0.000163992
-0.00134089
-0.000166701
-0.000439823
-0.00155643
4.58389e-05
-0.000811436
-0.00170072
0.000248686
-0.00113895
-0.00184501
0.000551275
-0.00131809
-0.0020542
0.00105001
-0.0013055
-0.00236962
0.00162558
-0.00108453
-0.00278602
0.00192292
-0.000642785
-0.00316056
0.00152947
4.67647e-05
-0.00324052
0.000164319
0.000979398
-0.00231924
-0.00243278
0.00212767
-0.00652525
0.00307589
0.000592863
0.00248928
0.00142313
0.00116604
0.00291765
0.00185189
0.00147253
0.00379423
0.00181151
0.00148278
0.00426386
0.00148278
0.00112287
0.00322537
0.00104091
0.000393517
0.00121795
0.000549978
-0.000202642
-0.000299783
0.000230755
-0.000453715
-0.000776968
0.000129899
-0.000611819
-0.000457744
4.11404e-05
-0.000831557
2.05202e-06
-0.000126046
-0.00107691
0.000323825
-0.000373463
-0.00129829
0.0005445
-0.000572202
-0.00147434
0.000808561
-0.000650233
-0.00158677
0.00121293
-0.000560869
-0.00164255
0.00168387
-0.000281298
-0.0016771
0.00191514
0.000221834
-0.00171918
0.00146012
0.000993536
-0.00158342
-0.000133877
0.00210785
-0.00116254
-0.00308285
0.00315559
-0.00790576
0.00364929
0.00109152
0.000280254
0.00210069
0.00164501
0.00174174
0.00252934
0.00212667
0.00294751
0.00267213
0.00238938
0.0037384
0.00238938
0.00227623
0.00322617
0.00188827
0.00174325
0.00175104
0.00128601
0.00104473
0.00041637
0.000726723
0.000526299
-0.000326801
0.000349742
0.000265161
-0.00028663
0.000178737
7.75901e-05
0.000138778
0.000134282
-0.000118643
0.000541602
6.92705e-05
-0.000322408
0.000815108
1.47706e-05
-0.000479503
0.00103957
1.68053e-05
-0.000536037
0.00129999
0.000156621
-0.000470353
0.00157195
0.000497787
-0.00032092
0.00163457
0.00110137
-0.000159133
0.00109059
0.00201852
-0.00019573
-0.000385085
0.00324592
-0.000283275
-0.00333427
0.00403587
-0.00840242
0.00393435
0.001639
-0.00263342
0.00117809
0.0021508
0.000354777
0.0022947
0.00254063
0.00202681
0.00286299
0.00287355
0.00307254
0.00287355
0.00294366
0.00299826
0.0025077
0.00267605
0.00203313
0.00195326
0.00221206
0.00101763
0.00133945
0.00172476
0.000337763
0.00077034
0.0013879
0.000188309
0.000432365
0.00118219
0.000424421
0.000399311
0.00103706
0.000746731
0.000510255
0.000915569
0.00100948
0.000637533
0.000838008
0.00120799
0.000763368
0.000843878
0.00136702
0.000969141
0.000954582
0.00146554
0.00135608
0.00111045
0.00136505
0.00203117
0.00111839
0.000822497
0.00302815
0.000810631
-0.000488365
0.00402749
0.000305003
-0.00329577
0.00451661
-0.00828399
0.0038799
0.00154628
-0.00460396
-0.000446888
0.00217965
-0.00082707
0.00140025
0.00248307
0.00128497
0.00241849
0.0027716
0.00249545
0.0027716
0.00296441
0.00267109
0.00264089
0.00294499
0.0020725
0.00221304
0.00277723
0.00135605
0.00164643
0.00253211
0.000878066
0.001083
0.00230137
0.000753455
0.000718918
0.00214941
0.000846192
0.000696505
0.00207494
0.000993668
0.000921343
0.00205635
0.00114816
0.00119649
0.0020838
0.00128362
0.00145897
0.00215196
0.00137637
0.00176127
0.00223534
0.00139275
0.00219202
0.00223243
0.00125326
0.00283203
0.00195779
0.000794129
0.00365793
0.00136337
-0.000387861
0.00433646
0.000642094
-0.00309116
0.00444468
-0.00781205
0.00347807
0.000979274
-0.00570583
-0.00137432
0.00158914
-0.00171448
0.000544259
0.00186392
0.000708726
0.00167241
0.00213716
0.00194894
0.00213716
0.0024518
0.0021684
0.00212921
0.0026736
0.00178274
0.00178943
0.00278479
0.00135181
0.00129488
0.00278768
0.00118604
0.000821605
0.00271119
0.00127634
0.000562755
0.00266775
0.00130287
0.000642215
0.00270664
0.00121864
0.000974835
0.00279408
0.00119564
0.00135431
0.00289714
0.00122715
0.00171109
0.00297771
0.00126787
0.00206916
0.0029751
0.00127305
0.00248611
0.00278977
0.00117594
0.00300669
0.00233585
0.000806177
0.00359874
0.00165894
-0.000293108
0.00401491
0.000885809
-0.00283714
0.00383286
-0.00706587
0.00270606
-0.000100204
-0.00560896
-0.00226793
0.000340113
-0.00227193
-0.000543574
0.000625956
8.81571e-06
0.000669208
0.000979286
0.00124227
0.000979286
0.00144166
0.00140087
0.000863323
0.0018555
0.00119352
0.000430515
0.0021586
0.00110903
-0.000156436
0.00236125
0.00136164
-0.000677682
0.002453
0.0017601
-0.00084049
0.00259914
0.00167995
-0.000599561
0.00285059
0.00129767
-7.48864e-05
0.00309545
0.00105725
0.000484848
0.00329553
0.000965151
0.000972114
0.00341361
0.00095327
0.00140959
0.00340093
0.000965944
0.00183835
0.00320047
0.000932005
0.00229379
0.00279152
0.00065418
0.00275034
0.00217416
-0.000303025
0.00299525
0.00128424
-0.00243508
0.00269373
-0.00589857
0.00164278
-0.00144092
-0.00413544
-0.00333037
-0.00191319
-0.00193004
-0.00214756
-0.00182123
-0.000457038
-0.00139494
-0.00137088
0.00034156
-0.00137088
-0.000850135
0.000564975
-0.00181312
-0.000373346
0.000636677
-0.00260283
0.000154171
0.00082412
-0.00352037
0.000874271
0.00124835
-0.00422018
0.00163557
0.00181891
-0.00431741
0.00241886
0.00163606
-0.00391007
0.00309238
0.00109148
-0.00318964
0.00358002
0.000740946
-0.00235424
0.00391424
0.000549351
-0.00155114
0.0041248
0.000457658
-0.000834884
0.00421301
0.000424715
-0.000192776
0.00416105
0.00039392
0.000405957
0.00389522
0.000224818
0.000917328
0.00332697
-0.000377508
0.00115216
0.00212824
-0.00169689
0.000964259
-0.00391466
0.000346242
-0.0041314
-0.00486529
-0.00609051
-0.00512009
-0.00664999
-0.00574551
-0.00647922
-0.00647922
-0.00594602
-0.00755469
-0.00508532
-0.00882968
-0.0037355
-0.0100883
-0.00168433
-0.0110153
0.00111074
-0.0111662
0.00360745
-0.0105393
0.00529947
-0.00967234
0.00634692
-0.00848966
0.00694507
-0.00724652
0.00724563
-0.00607161
0.00735064
-0.00499128
0.00730134
-0.0040051
0.00701701
-0.00314948
0.00616866
-0.00242529
0.00410364
-0.00174272
-0.00117886
0.00027486
0.00217668
-0.00329826
0.000145013
0.0024273
-0.00309483
-0.000308833
0.00217747
-0.00302762
-0.00100354
0.00172894
-0.00253157
-0.001475
0.000942844
-0.001475
-0.00128242
-0.000251808
-0.000351677
-0.000876745
-0.000822195
0.000240411
-0.00072786
-0.00072051
0.000444712
-0.000992258
-0.000465555
0.000572489
-0.00141038
-0.000277413
0.000259877
-0.00171608
-9.19709e-05
-0.000535913
-0.00185383
7.53518e-05
-0.00146029
-0.00196043
0.00026277
-0.00212499
-0.00224369
0.00057821
-0.0024351
-0.0028597
0.000993445
-0.00232265
-0.00375397
0.00126943
-0.00178094
-0.00459197
0.00108775
-0.000890801
-0.00474754
0.000210115
0.000197988
-0.00359469
-0.00122322
0.0013216
-0.00370664
0.00233409
0.000379126
0.00323252
-0.00120828
0.00059219
0.00354736
-0.000758097
0.000469634
0.00337499
-0.000624944
9.90459e-05
0.00278394
-0.000455786
-0.000191617
0.00152413
-0.000191617
-0.000355347
-0.000109694
4.0322e-05
-0.000460505
-0.00103064
0.000299252
-0.000681459
-0.000960696
0.000430901
-0.00114832
-0.000459157
0.000296472
-0.0016877
-0.000118136
-5.97154e-05
-0.00206518
7.50088e-05
-0.000600939
-0.00227585
0.000222872
-0.0010758
-0.00245441
0.000473946
-0.00135072
-0.00269145
0.000904681
-0.00139494
-0.00302149
0.00143227
-0.00119332
-0.00339954
0.00175017
-0.000745489
-0.00365211
0.00142248
-3.53953e-05
-0.00352777
0.000148328
0.000916852
-0.00245277
-0.00228581
0.00211526
-0.00613628
0.00305276
0.000488175
0.0031476
0.0010198
0.000934672
0.00356538
0.0013873
0.00112247
0.00364518
0.00135347
0.00104091
0.00322537
0.00112287
0.000810944
0.00198404
0.000810944
0.000401154
0.000347941
0.000502137
-1.5051e-05
-0.000827304
0.000443642
-0.00041039
-0.000945736
0.000510296
-0.000837041
-0.000348229
0.000356867
-0.00130825
0.0001596
6.74272e-05
-0.0016842
0.000379009
-0.000301512
-0.00197095
0.000497739
-0.000560317
-0.00219138
0.000705302
-0.000661159
-0.00235824
0.00107467
-0.000564004
-0.00247359
0.00152589
-0.000259572
-0.0025276
0.00176596
0.000260053
-0.00248503
0.00134392
0.00102953
-0.00216545
-0.000170636
0.00210723
-0.00147298
-0.00296749
0.0031448
-0.0075598
0.00359983
0.000931665
0.00169101
0.00262558
0.001441
0.00285069
0.00273467
0.00177595
0.00333899
0.00264334
0.00188827
0.00322617
0.00227623
0.00174337
0.00227384
0.00174337
0.00132456
0.000877644
0.00117511
0.000758424
-0.000277409
0.000742978
0.00026043
-0.000632731
0.000534746
-0.000154969
-9.66954e-05
0.000342609
-0.000527602
0.00048102
0.000185496
-0.000840062
0.000730134
3.06025e-05
-0.00111011
0.000814829
-3.2273e-05
-0.00129782
0.000933631
-2.38198e-05
-0.00137306
0.00115797
0.000148556
-0.0013263
0.00143841
0.000538503
-0.00118199
0.00154543
0.00117758
-0.00101355
0.00108507
0.00210892
-0.000889742
-0.000341981