/*--------------------------------*- C++ -*----------------------------------*\
  =========                 |
  \\      /  F ield         | OpenFOAM: The Open Source CFD Toolbox
   \\    /   O peration     | Website:  https://openfoam.org
    \\  /    A nd           | Version:  8
     \\/     M anipulation  |
\*---------------------------------------------------------------------------*/
FoamFile
{
    version     2.0;
    format      ascii;
    class       volVectorField;
    location    "600";
    object      U;
}
// * * * * * * * * * * * * * * * * * * * * * * * * * * * * * * * * * * * * * //

dimensions      [0 1 -1 0 0 0 0];

internalField   nonuniform List<vector> 
4000
(
(0.00701247 -0.0209233 0.00701247)
(0.0132543 -0.012651 0.00644737)
(0.0140402 -0.00458372 0.00527213)
(0.00663686 0.00271443 0.00365739)
(-0.0124655 0.00464112 0.00110065)
(-0.0148412 3.5182e-05 -0.000312984)
(-0.0110291 -0.00136617 -0.000750292)
(-0.00762499 -0.000902557 -0.00102177)
(-0.00479807 -0.000228966 -0.00139997)
(-0.00256095 0.000519977 -0.00190288)
(-0.000863088 0.00124243 -0.0024818)
(0.000409211 0.002003 -0.00295545)
(0.00100754 0.0027768 -0.0030745)
(0.000346164 0.00339327 -0.00268478)
(-0.00213053 0.00355174 -0.00194128)
(-0.00642889 0.00307244 -0.00122895)
(-0.011932 0.0019312 -0.000714595)
(-0.0163136 -0.000305407 -0.000109879)
(-0.0156567 -0.00486365 0.00110329)
(-0.00768157 -0.0143044 0.00272592)
(0.00296828 -0.0290256 0.00296828)
(0.00715105 -0.0164585 0.00319208)
(0.00826648 -0.000141772 0.00259383)
(0.00609931 0.0123484 0.00191835)
(-0.0040454 0.0112832 0.00124202)
(-0.00703246 0.000172388 0.000451863)
(-0.00686308 -0.00366521 0.000184476)
(-0.00620363 -0.00297308 0.00020317)
(-0.00490037 -0.00147917 0.000126801)
(-0.00397236 7.93412e-05 -0.000316199)
(-0.00307198 0.00168161 -0.000795659)
(-0.00207659 0.0032385 -0.00122945)
(-0.00113133 0.0048043 -0.00150702)
(-0.000509642 0.00632367 -0.00149716)
(-0.000641159 0.00757117 -0.00111993)
(-0.00185473 0.00821615 -0.000473443)
(-0.00470416 0.00804163 0.000209348)
(-0.00798983 0.00502634 0.00119445)
(-0.00731923 -0.00555847 0.00309835)
(-0.00101244 -0.023637 0.00448521)
(0.00127532 -0.0372966 0.00127532)
(0.0037062 -0.023996 0.00214566)
(0.004816 -0.00584155 0.00224866)
(0.00749215 0.0120955 0.00153042)
(0.00413414 0.0141012 0.00131517)
(0.00272627 0.00406724 0.000792618)
(-0.000681899 -0.00346079 8.74176e-05)
(-0.00255699 -0.00401658 9.80152e-06)
(-0.00196945 -0.00242918 0.000271969)
(-0.00195877 -0.000152518 0.000316706)
(-0.00180462 0.00186845 3.83201e-05)
(-0.001537 0.00367387 -0.000302946)
(-0.000930025 0.00542194 -0.000571208)
(-6.59508e-05 0.0070956 -0.000658118)
(0.00072958 0.00843846 -0.000445146)
(0.00148239 0.00903706 0.000124706)
(0.000228128 0.00833087 0.000659875)
(0.00240966 0.00207815 0.00269449)
(0.00128974 -0.012596 0.00455183)
(0.00294305 -0.0318831 0.00514762)
(0.000482145 -0.0409725 0.000482145)
(0.00176654 -0.0282377 0.00183828)
(0.00118791 -0.0117666 0.00275224)
(0.0072798 0.00855174 0.00296405)
(0.0092544 0.0120812 0.0025091)
(0.0104013 0.00561347 0.00218183)
(0.00928327 0.00130361 0.00179265)
(0.00588187 -0.00128066 0.0012028)
(0.00368694 -0.00212717 0.000803829)
(0.00266568 -0.000986906 0.00082461)
(0.00219184 0.00096304 0.000960205)
(0.0020218 0.00285338 0.000942801)
(0.00216058 0.0045423 0.000819491)
(0.00272423 0.00603193 0.000741408)
(0.00365887 0.00713484 0.000900821)
(0.00483158 0.00733424 0.00147235)
(0.00614705 0.00431283 0.00270015)
(0.00955542 -0.00462225 0.00462727)
(0.00706432 -0.0172135 0.00519389)
(0.00529699 -0.0349312 0.00532886)
(-7.24808e-05 -0.0424274 -7.24808e-05)
(0.000274996 -0.031019 0.00153976)
(-0.00183047 -0.0183525 0.0026448)
(0.00133643 -0.0061105 0.00418643)
(0.00778897 0.00227115 0.00468171)
(0.0102289 -0.000649933 0.00477098)
(0.0107442 -0.00234242 0.004428)
(0.0102259 -0.00177856 0.00381523)
(0.00916034 -0.00092066 0.00328755)
(0.00833805 -8.57999e-05 0.00310589)
(0.00798725 0.00118234 0.00317583)
(0.00796025 0.0026179 0.00333477)
(0.00821277 0.00382251 0.00347659)
(0.00884412 0.0045911 0.00360564)
(0.0101718 0.00434553 0.00389412)
(0.0123945 0.0018714 0.00454583)
(0.0147323 -0.00373014 0.00534172)
(0.0142969 -0.0108748 0.00530426)
(0.00997806 -0.0211965 0.00493302)
(0.00657157 -0.0362775 0.00498811)
(-0.000632423 -0.0421354 -0.000632423)
(-0.000969537 -0.0327127 0.000995034)
(-0.00399198 -0.0232813 0.00162609)
(-0.0030234 -0.0158344 0.00237591)
(-0.00022477 -0.0120027 0.00295855)
(0.00284661 -0.0116566 0.00252761)
(0.00466784 -0.0111244 0.00211578)
(0.00648522 -0.00943446 0.00218445)
(0.00802565 -0.00790385 0.00255888)
(0.0095735 -0.0070581 0.00296486)
(0.0113821 -0.00642665 0.00340048)
(0.0133383 -0.00585853 0.00386724)
(0.0152857 -0.00550226 0.00429515)
(0.0171231 -0.00567837 0.00461129)
(0.0186495 -0.00667879 0.00474637)
(0.0193366 -0.00855837 0.0046353)
(0.0186183 -0.0115535 0.00429928)
(0.016339 -0.0163393 0.00387493)
(0.0111111 -0.0240643 0.00364295)
(0.00723047 -0.0361015 0.00417184)
(-0.00141389 -0.0400529 -0.00141389)
(-0.0023137 -0.0328079 8.2911e-06)
(-0.00611946 -0.026352 -0.000126939)
(-0.00606727 -0.0220004 -0.000323906)
(-0.0047056 -0.019677 -0.000746311)
(-0.00234348 -0.0193295 -0.00138698)
(0.000394355 -0.0188875 -0.00192883)
(0.00357184 -0.0173097 -0.00182842)
(0.00648305 -0.0159176 -0.0012833)
(0.00913883 -0.0154069 -0.000871363)
(0.0118933 -0.0151285 -0.000559904)
(0.0145771 -0.0148269 -0.000240729)
(0.0170021 -0.0145013 9.19451e-05)
(0.0189606 -0.014266 0.000398336)
(0.0202021 -0.014361 0.00066003)
(0.0204489 -0.0150802 0.000887561)
(0.0194096 -0.0167278 0.00108739)
(0.0170338 -0.0197338 0.00134264)
(0.011644 -0.0252135 0.00182758)
(0.00778501 -0.034305 0.0030396)
(-0.0027606 -0.0349983 -0.0027606)
(-0.00439859 -0.0298853 -0.00176259)
(-0.00889526 -0.0260294 -0.00258878)
(-0.00948743 -0.0239182 -0.00347462)
(-0.00848682 -0.0229922 -0.00440664)
(-0.00598979 -0.0228629 -0.00524479)
(-0.0026304 -0.0226794 -0.00593114)
(0.00167491 -0.0216776 -0.00611472)
(0.00576461 -0.0207793 -0.00562716)
(0.00911593 -0.0206599 -0.00531825)
(0.0124885 -0.0205719 -0.00512106)
(0.0156801 -0.0202668 -0.00483717)
(0.0184291 -0.0197785 -0.0044588)
(0.0205267 -0.0191832 -0.00399018)
(0.0218021 -0.0187118 -0.0034697)
(0.0220558 -0.0185426 -0.00287486)
(0.0210242 -0.0189219 -0.00218507)
(0.0185337 -0.0202924 -0.00134713)
(0.0128087 -0.0236473 -0.000246893)
(0.00872989 -0.0299117 0.00157464)
(-0.0051044 -0.0260765 -0.0051044)
(-0.0079427 -0.0226075 -0.00500881)
(-0.0127832 -0.020645 -0.00633958)
(-0.013711 -0.0200515 -0.0077706)
(-0.0127264 -0.0201236 -0.00911846)
(-0.00999741 -0.0204853 -0.0103085)
(-0.00599487 -0.0206829 -0.0112544)
(-0.00105174 -0.0202289 -0.0117124)
(0.00472135 -0.0196189 -0.0111571)
(0.0091259 -0.0196247 -0.0106865)
(0.0133303 -0.0195486 -0.0103333)
(0.0171766 -0.0191348 -0.00979179)
(0.0203323 -0.0184723 -0.0091042)
(0.0226697 -0.0177035 -0.00832881)
(0.0241064 -0.0169572 -0.00749137)
(0.0244956 -0.016366 -0.00657861)
(0.0235782 -0.0161 -0.00555696)
(0.0210476 -0.0164585 -0.00434318)
(0.0151174 -0.0181919 -0.00280043)
(0.0104298 -0.0221063 -0.000408127)
(-0.00883222 -0.0159806 -0.00883222)
(-0.0139673 -0.012647 -0.0104095)
(-0.0189695 -0.0110036 -0.012841)
(-0.0199291 -0.0104009 -0.0151398)
(-0.0187579 -0.0101295 -0.0172931)
(-0.0157073 -0.00989554 -0.0191751)
(-0.0111628 -0.0094441 -0.0207868)
(-0.00563103 -0.00857053 -0.0219382)
(0.00250444 -0.00738869 -0.0216467)
(0.00934037 -0.00791836 -0.0206706)
(0.0149202 -0.00852645 -0.019827)
(0.0197213 -0.00888266 -0.0185875)
(0.0234221 -0.00898898 -0.0171501)
(0.0260293 -0.00891832 -0.0156528)
(0.0275986 -0.00875318 -0.0141387)
(0.0280959 -0.00858697 -0.0125918)
(0.0273201 -0.00854441 -0.0109394)
(0.0248744 -0.00884659 -0.00906046)
(0.0189396 -0.01012 -0.0066711)
(0.0130336 -0.0133532 -0.00314742)
(0.00644737 -0.012651 0.0132543)
(0.0113228 -0.00674508 0.0113228)
(0.0117756 -0.00112914 0.0081462)
(0.00524776 0.00496064 0.00462764)
(-0.0111123 0.00537099 0.00104508)
(-0.0141194 -0.000223403 -0.000742028)
(-0.0107771 -0.00192219 -0.00126493)
(-0.00773795 -0.00162546 -0.00158643)
(-0.00529316 -0.00106706 -0.00210643)
(-0.00352582 -0.000535894 -0.00293386)
(-0.00224849 1.75427e-05 -0.00394043)
(-0.00133556 0.000710161 -0.00489873)
(-0.00106181 0.00164702 -0.00540205)
(-0.00207261 0.00267219 -0.00504965)
(-0.00492978 0.00318933 -0.00389868)
(-0.00953514 0.00268594 -0.00257913)
(-0.0149032 0.00118071 -0.00157395)
(-0.0184762 -0.0014442 -0.000479859)
(-0.0168197 -0.0061017 0.00172199)
(-0.00883147 -0.0148037 0.0045874)
(0.00319208 -0.0164585 0.00715105)
(0.0069687 -0.0067594 0.0069687)
(0.00801285 0.00555533 0.00505143)
(0.00616657 0.0138883 0.00325633)
(-0.00163526 0.0126827 0.00205362)
(-0.00543233 0.00114201 0.00079356)
(-0.00640741 -0.00322676 9.54727e-05)
(-0.00590568 -0.00289222 -8.28004e-06)
(-0.00478057 -0.00151909 -0.000158319)
(-0.00417965 -0.000272052 -0.000734307)
(-0.0037913 0.000872862 -0.00147985)
(-0.00341727 0.00210371 -0.00220242)
(-0.00302498 0.00370846 -0.00269278)
(-0.00282568 0.0057001 -0.00273994)
(-0.00324795 0.00752787 -0.00214126)
(-0.00466666 0.00833588 -0.000981756)
(-0.00730908 0.00752106 0.000357015)
(-0.00989802 0.00350394 0.00217174)
(-0.00927906 -0.00667082 0.00504697)
(-0.00254676 -0.0235599 0.00773381)
(0.00214566 -0.023996 0.0037062)
(0.00522187 -0.0137767 0.00522187)
(0.0072601 0.000660687 0.00503376)
(0.00863343 0.0134642 0.00367175)
(0.00603771 0.0152883 0.00288396)
(0.00381006 0.00611652 0.00175855)
(-0.000226543 -0.00157168 0.000272768)
(-0.00255948 -0.00313779 -0.000190386)
(-0.00219625 -0.00157053 3.37271e-06)
(-0.00196428 0.000272441 6.27161e-05)
(-0.00192772 0.00171565 -0.000298276)
(-0.00200467 0.0029918 -0.000732199)
(-0.00193486 0.00449169 -0.00105209)
(-0.00160985 0.0063573 -0.00108529)
(-0.00115368 0.0081499 -0.000612196)
(-0.000754493 0.00889566 0.000547967)
(-0.00160837 0.00739492 0.00197831)
(-0.000483861 0.000949307 0.00496798)
(-0.00175674 -0.0122187 0.00794789)
(0.00112966 -0.0316513 0.00948522)
(0.00183828 -0.0282377 0.00176654)
(0.00474956 -0.018188 0.00474956)
(0.00594249 -0.00416204 0.00606962)
(0.00945394 0.0102141 0.00562785)
(0.0105158 0.0138593 0.00481517)
(0.0103552 0.00788851 0.00382885)
(0.00835369 0.00249396 0.0025642)
(0.00465546 -0.000898707 0.00118841)
(0.00257659 -0.00134659 0.000558409)
(0.00199551 0.000253216 0.000717442)
(0.00185563 0.0020849 0.000998019)
(0.0017357 0.00358793 0.00111826)
(0.001659 0.00491362 0.001121)
(0.00185369 0.00626357 0.00120221)
(0.00246685 0.00741814 0.0016736)
(0.00338801 0.00755171 0.00285472)
(0.00419676 0.00484793 0.00489653)
(0.00644243 -0.00242912 0.00801577)
(0.00385673 -0.0147626 0.00986962)
(0.00319613 -0.0340885 0.0104734)
(0.00153976 -0.031019 0.000274996)
(0.00446485 -0.0213888 0.00446485)
(0.00424349 -0.00886971 0.00690623)
(0.00731846 0.00420503 0.00806732)
(0.0108122 0.00970849 0.00779535)
(0.01228 0.0069082 0.00735098)
(0.011895 0.00387111 0.0064441)
(0.0102368 0.00226342 0.00501472)
(0.00832963 0.00161529 0.00366449)
(0.00716905 0.00206047 0.00317631)
(0.00680515 0.00326952 0.0033955)
(0.0068223 0.00454599 0.00383907)
(0.00701675 0.00559082 0.00426933)
(0.00743698 0.00634068 0.0046909)
(0.0082521 0.0065152 0.00532083)
(0.00948988 0.00527 0.00652802)
(0.0110062 0.00132971 0.00849621)
(0.0108446 -0.0053772 0.0100549)
(0.00670271 -0.0165274 0.0107306)
(0.00426475 -0.0346118 0.0107101)
(0.000995034 -0.0327127 -0.000969537)
(0.00407033 -0.023152 0.00407033)
(0.00265471 -0.0120011 0.00682378)
(0.00406129 -0.0016377 0.0086511)
(0.00729766 0.00407841 0.00937738)
(0.00941966 0.0038465 0.00900318)
(0.0100367 0.00282735 0.00826681)
(0.00994398 0.00240131 0.0073835)
(0.00973794 0.00236865 0.00666539)
(0.00986444 0.00263497 0.00635328)
(0.0104524 0.00321398 0.00649858)
(0.011364 0.00387935 0.0069604)
(0.012426 0.00435067 0.00754775)
(0.0135507 0.00436936 0.00817947)
(0.0146548 0.00365168 0.00889383)
(0.0154522 0.00182416 0.00974234)
(0.0151393 -0.00161716 0.0104476)
(0.0127253 -0.0072947 0.010599)
(0.00751124 -0.0174351 0.0103937)
(0.00469558 -0.0338673 0.0100672)
(8.2911e-06 -0.0328079 -0.0023137)
(0.00309216 -0.023436 0.00309216)
(0.000533286 -0.0137933 0.00547669)
(0.00136615 -0.00568026 0.00665548)
(0.00323118 -0.00101154 0.00724856)
(0.0055009 0.000180024 0.00704618)
(0.00717245 0.000371004 0.0066959)
(0.00850033 0.000727279 0.00666381)
(0.0096227 0.00108398 0.00688888)
(0.0107864 0.00124138 0.00717399)
(0.0121362 0.0013933 0.00749665)
(0.0135938 0.00159856 0.00788266)
(0.015005 0.00171212 0.0082997)
(0.0162105 0.00153069 0.00870529)
(0.0169657 0.000798106 0.00904825)
(0.016844 -0.000808908 0.00920282)
(0.0153292 -0.00359112 0.00918649)
(0.0126148 -0.00859536 0.00904748)
(0.00746798 -0.0176865 0.00879116)
(0.00504378 -0.031905 0.00863789)
(-0.00176259 -0.0298853 -0.00439859)
(0.000552019 -0.0214173 0.000552019)
(-0.00304345 -0.0139501 0.00200072)
(-0.00258744 -0.00857625 0.00195405)
(-0.0014561 -0.00565283 0.00124355)
(0.000757195 -0.00483165 0.000149817)
(0.00340331 -0.0041809 -0.000410554)
(0.00612357 -0.00313232 1.89766e-05)
(0.00838762 -0.00209067 0.00120726)
(0.0103439 -0.00162064 0.00221281)
(0.0123009 -0.00153467 0.0028708)
(0.0142097 -0.0014006 0.00344272)
(0.015851 -0.00128327 0.00394636)
(0.0170874 -0.00144973 0.00427978)
(0.0177248 -0.00195838 0.00452255)
(0.0174982 -0.00301438 0.00480249)
(0.016144 -0.00511851 0.00513623)
(0.0136644 -0.00916822 0.00553633)
(0.00840811 -0.0164981 0.00586938)
(0.0059542 -0.0277499 0.00631131)
(-0.00500881 -0.0226075 -0.0079427)
(-0.00519915 -0.0167189 -0.00519915)
(-0.00913983 -0.0124432 -0.00515228)
(-0.00916379 -0.0101481 -0.00620727)
(-0.00779633 -0.00912998 -0.00762083)
(-0.00531615 -0.00895351 -0.00911804)
(-0.00204214 -0.00879211 -0.0102108)
(0.00209125 -0.00795434 -0.0102649)
(0.00577171 -0.00724789 -0.00903391)
(0.00906083 -0.00731293 -0.00823758)
(0.0122338 -0.0076806 -0.00773548)
(0.015186 -0.00768994 -0.00701331)
(0.0176137 -0.00740733 -0.00613655)
(0.0193995 -0.00700053 -0.00520736)
(0.0204492 -0.00665074 -0.00423447)
(0.0205996 -0.006613 -0.00315211)
(0.0196248 -0.00721518 -0.00194117)
(0.0172459 -0.00904564 -0.000621565)
(0.0115178 -0.013062 0.0008801)
(0.00804671 -0.0204545 0.00260086)
(-0.0104095 -0.012647 -0.0139673)
(-0.0152089 -0.0074336 -0.0152089)
(-0.020252 -0.0045525 -0.0181001)
(-0.020999 -0.00308888 -0.0211848)
(-0.0197764 -0.00220742 -0.0242426)
(-0.0168553 -0.00146893 -0.0269709)
(-0.0125706 -0.00053903 -0.0292841)
(-0.00698243 0.000781102 -0.0307889)
(0.000902993 0.00244272 -0.0303951)
(0.00921918 0.00172819 -0.0290105)
(0.0151131 0.000514626 -0.0276997)
(0.019941 -0.000408223 -0.0256723)
(0.0234191 -0.00103597 -0.0233256)
(0.0257328 -0.00144671 -0.0209242)
(0.0270583 -0.00172351 -0.0185506)
(0.0274308 -0.00199577 -0.0161854)
(0.0266613 -0.00247253 -0.0137095)
(0.0242908 -0.00354184 -0.010952)
(0.0183022 -0.00605069 -0.00762096)
(0.012196 -0.0113498 -0.00320547)
(0.00527213 -0.00458372 0.0140402)
(0.0081462 -0.00112914 0.0117756)
(0.00755442 0.00304801 0.00755442)
(0.00113503 0.00750273 0.00347646)
(-0.0113289 0.00465478 -6.83403e-06)
(-0.013041 -0.000916562 -0.00120726)
(-0.00977475 -0.00237733 -0.0015698)
(-0.00714034 -0.00207617 -0.00190086)
(-0.00522161 -0.00158077 -0.00245728)
(-0.00409273 -0.00118281 -0.00346373)
(-0.00335696 -0.000778292 -0.00481434)
(-0.00284972 -0.000170726 -0.00619186)
(-0.00279332 0.0007786 -0.00712363)
(-0.00389082 0.00196661 -0.0070715)
(-0.0068362 0.00279642 -0.00581839)
(-0.0115086 0.00247917 -0.00383405)
(-0.0166393 0.000913647 -0.00173493)
(-0.0195912 -0.00179086 0.000542937)
(-0.0173658 -0.00636781 0.00365718)
(-0.00960484 -0.0144672 0.00713688)
(0.00259383 -0.000141772 0.00826648)
(0.00505143 0.00555533 0.00801285)
(0.00592738 0.0115583 0.00592738)
(0.00442807 0.015756 0.00396434)
(-0.00152267 0.0117635 0.00242824)
(-0.00415355 0.000580138 0.000873292)
(-0.00553094 -0.00333917 -0.000369208)
(-0.00515366 -0.00298541 -0.000656417)
(-0.00446144 -0.00171371 -0.00105072)
(-0.00441509 -0.000689472 -0.00182407)
(-0.00462761 0.000117073 -0.00280594)
(-0.00482022 0.0010639 -0.00370821)
(-0.00492336 0.00258485 -0.00423114)
(-0.00514343 0.00477717 -0.0041943)
(-0.0059012 0.00701625 -0.00338716)
(-0.00753883 0.00806772 -0.00175359)
(-0.00992649 0.00695245 0.000503531)
(-0.0117905 0.00256129 0.00350415)
(-0.0107023 -0.00706585 0.00732452)
(-0.00379997 -0.0228647 0.0107677)
(0.00224866 -0.00584155 0.004816)
(0.00503376 0.000660687 0.0072601)
(0.00713699 0.00972917 0.00713699)
(0.00796086 0.0167002 0.00563954)
(0.00589913 0.015005 0.00436457)
(0.00399519 0.00578635 0.00262154)
(-0.000148467 -0.00154862 0.000540096)
(-0.00223507 -0.0029562 -0.000241992)
(-0.00214021 -0.0014039 -0.000397422)
(-0.00219136 0.00025771 -0.000633219)
(-0.00252633 0.00138208 -0.00118613)
(-0.00301327 0.00229718 -0.00174277)
(-0.00342009 0.00354302 -0.00204271)
(-0.00357689 0.00543493 -0.00190347)
(-0.00351896 0.00751985 -0.00110466)
(-0.0035033 0.00845458 0.000597572)
(-0.00413412 0.00657542 0.00315547)
(-0.0035923 -2.18285e-05 0.00718181)
(-0.00421478 -0.0120325 0.0109177)
(-0.000389833 -0.0310292 0.0129319)
(0.00275224 -0.0117666 0.00118791)
(0.00606962 -0.00416204 0.00594249)
(0.00808815 0.00572243 0.00808815)
(0.0102784 0.0140303 0.00768769)
(0.0106253 0.0146181 0.00660233)
(0.0098413 0.00817046 0.00497907)
(0.00729411 0.00224781 0.00301315)
(0.00369891 -0.00135325 0.0011262)
(0.00202151 -0.00134807 0.000312309)
(0.00156382 0.000465561 0.000339608)
(0.00131205 0.00218655 0.00048634)
(0.0009422 0.00342901 0.000529719)
(0.000523769 0.00450802 0.00056272)
(0.000338949 0.00580682 0.000837351)
(0.000596494 0.0071887 0.00170541)
(0.00124795 0.0076176 0.00355963)
(0.00182634 0.00531423 0.00664535)
(0.0033385 -0.0011895 0.0108788)
(0.000827474 -0.0134661 0.0136375)
(0.0015229 -0.0338453 0.0140281)
(0.0026448 -0.0183525 -0.00183047)
(0.00690623 -0.00886971 0.00424349)
(0.0081786 0.00085024 0.0081786)
(0.0104112 0.00983938 0.00941859)
(0.0121967 0.0124631 0.00899051)
(0.0125633 0.00887666 0.00786284)
(0.011377 0.00475103 0.00621398)
(0.0092947 0.00187581 0.00424093)
(0.0073515 0.000754109 0.00266988)
(0.00629561 0.00146416 0.00220515)
(0.00589744 0.00295013 0.00253482)
(0.00573689 0.0043253 0.00311048)
(0.00565877 0.00538967 0.0037025)
(0.00575629 0.00622329 0.00439832)
(0.00619126 0.00670855 0.00549909)
(0.00694875 0.00611255 0.00743936)
(0.00780597 0.00311424 0.0104379)
(0.00762617 -0.00293779 0.0133193)
(0.00389199 -0.0143092 0.0147945)
(0.00265378 -0.0340186 0.0139625)
(0.00162609 -0.0232813 -0.00399198)
(0.00682378 -0.0120011 0.00265471)
(0.00715395 -0.00237392 0.00715395)
(0.0086515 0.00621839 0.00945808)
(0.0106576 0.00982999 0.00983747)
(0.0117713 0.00840314 0.00900245)
(0.0117131 0.00591115 0.00757966)
(0.0110308 0.00398093 0.00601988)
(0.0102639 0.00301125 0.00481574)
(0.00980678 0.00307295 0.0044009)
(0.00979416 0.00386441 0.00478292)
(0.010092 0.00485085 0.00559548)
(0.0105481 0.00565865 0.00654778)
(0.0111052 0.00609555 0.00760295)
(0.011722 0.00595175 0.0089128)
(0.0121946 0.00480726 0.0106731)
(0.0118688 0.00206723 0.01271)
(0.00977894 -0.0033478 0.0140932)
(0.00503091 -0.0142563 0.0142573)
(0.0032924 -0.0329625 0.0125189)
(-0.000126939 -0.026352 -0.00611946)
(0.00547669 -0.0137933 0.000533286)
(0.00480643 -0.00417016 0.00480643)
(0.00602593 0.00344526 0.00708341)
(0.0076085 0.00704178 0.0075181)
(0.00916346 0.00680732 0.00673495)
(0.0101422 0.00545068 0.00558186)
(0.0107213 0.00433693 0.00469895)
(0.011068 0.00375504 0.00436541)
(0.0114174 0.00363286 0.00453662)
(0.0119748 0.00389607 0.00510931)
(0.0127224 0.0043806 0.00594232)
(0.0135246 0.00484539 0.00689652)
(0.0142316 0.00506529 0.007929)
(0.0146373 0.00481594 0.00906155)
(0.0143713 0.00379939 0.0103072)
(0.0128673 0.00149308 0.0115777)
(0.0101489 -0.00347829 0.0122881)
(0.00536546 -0.0138204 0.0118516)
(0.00394372 -0.0307877 0.00974357)
(-0.00258878 -0.0260294 -0.00889526)
(0.00200072 -0.0139501 -0.00304345)
(2.20618e-05 -0.00439681 2.20618e-05)
(0.00195948 0.00271457 0.00162118)
(0.00369524 0.00555443 0.00145091)
(0.00575639 0.00570447 0.000284385)
(0.00755425 0.00507254 -0.000824291)
(0.0090201 0.00484302 -0.00129077)
(0.0101258 0.00499582 -0.000924097)
(0.0111346 0.0048332 -0.000110289)
(0.0122874 0.00458181 0.000828738)
(0.0135188 0.0045207 0.00185389)
(0.0146433 0.004567 0.00291905)
(0.0154695 0.00454425 0.00398459)
(0.0157761 0.00428673 0.00506416)
(0.0152836 0.00354421 0.00619329)
(0.0137495 0.00161233 0.00731092)
(0.0113533 -0.00315145 0.00792302)
(0.00663391 -0.0125 0.00752583)
(0.00525935 -0.0266902 0.00573764)
(-0.00633958 -0.020645 -0.0127832)
(-0.00515228 -0.0124432 -0.00913983)
(-0.00773451 -0.00651869 -0.00773451)
(-0.00651988 -0.00300966 -0.00796794)
(-0.00413989 -0.0014258 -0.00853423)
(-0.00178246 -0.00138616 -0.0103751)
(0.000715431 -0.00131964 -0.012311)
(0.0034792 -0.000173387 -0.0132395)
(0.00632183 0.0012046 -0.0126392)
(0.00910608 0.000985309 -0.0114696)
(0.0116942 -0.000139477 -0.0100389)
(0.0139694 -0.000688053 -0.00833882)
(0.0157455 -0.000702141 -0.00660133)
(0.0170073 -0.000447422 -0.00497582)
(0.0177192 -0.000178166 -0.00345637)
(0.0176946 -0.000246414 -0.00198048)
(0.0168193 -0.0012436 -0.000803778)
(0.0149192 -0.00401271 0.000284912)
(0.0102983 -0.00996641 0.000728682)
(0.00799966 -0.0196576 0.000432832)
(-0.012841 -0.0110036 -0.0189695)
(-0.0181001 -0.0045525 -0.020252)
(-0.0231941 -0.00110502 -0.0231941)
(-0.0235643 0.000711745 -0.0265023)
(-0.0220819 0.00186511 -0.0300637)
(-0.0190601 0.00285694 -0.0336037)
(-0.0147177 0.00407838 -0.036822)
(-0.00867879 0.00572384 -0.0388801)
(-0.000285501 0.00776007 -0.0385057)
(0.00971292 0.00682844 -0.0367455)
(0.0161862 0.00499298 -0.0348213)
(0.0212543 0.00356173 -0.0318619)
(0.0246251 0.00253698 -0.0284851)
(0.0266895 0.00183273 -0.0250943)
(0.0278005 0.00136141 -0.0218336)
(0.0281312 0.000968155 -0.0187354)
(0.0275463 0.000373079 -0.0157369)
(0.0254796 -0.000895403 -0.0126387)
(0.0196207 -0.0038891 -0.0093138)
(0.0133806 -0.0102298 -0.00592139)
(0.00365739 0.00271443 0.00663686)
(0.00462764 0.00496064 0.00524776)
(0.00347646 0.00750273 0.00113503)
(-0.00227291 0.00838351 -0.00227291)
(-0.00956115 0.00354067 -0.00240633)
(-0.0104967 -0.00123391 -0.00161203)
(-0.00766602 -0.00263845 -0.00132665)
(-0.00575149 -0.00234106 -0.00140319)
(-0.00471735 -0.00184245 -0.00174246)
(-0.00453382 -0.00142538 -0.00268809)
(-0.00459367 -0.000977074 -0.00431112)
(-0.0046437 -0.000385158 -0.00620448)
(-0.00479736 0.000457146 -0.00764146)
(-0.00577582 0.00156209 -0.00808721)
(-0.00845007 0.00252522 -0.00715304)
(-0.0129008 0.0024916 -0.00502098)
(-0.0176955 0.00104641 -0.00224026)
(-0.0200572 -0.00164294 0.000939059)
(-0.0174144 -0.00614473 0.00472916)
(-0.00997935 -0.0137742 0.00857933)
(0.00191835 0.0123484 0.00609931)
(0.00325633 0.0138883 0.00616657)
(0.00396434 0.015756 0.00442807)
(0.00253928 0.0158119 0.00253928)
(-0.00127929 0.00951679 0.00132551)
(-0.00263562 -0.00040641 0.00029964)
(-0.00386596 -0.00380668 -0.000519818)
(-0.00391509 -0.00339535 -0.000720695)
(-0.0040542 -0.002141 -0.00116604)
(-0.00491696 -0.00119343 -0.00211062)
(-0.00588598 -0.000491169 -0.00338816)
(-0.00659167 0.000355497 -0.00449187)
(-0.00707361 0.00175178 -0.00507934)
(-0.00766323 0.00390149 -0.00499614)
(-0.00873473 0.00626953 -0.00412725)
(-0.0105389 0.00756212 -0.00235126)
(-0.0126163 0.00648845 0.000330264)
(-0.0136399 0.00211307 0.00399529)
(-0.0118015 -0.00700715 0.00844895)
(-0.00476813 -0.021819 0.0122227)
(0.00153042 0.0120955 0.00749215)
(0.00367175 0.0134642 0.00863343)
(0.00563954 0.0167002 0.00796086)
(0.00624487 0.0180131 0.00624487)
(0.00489172 0.0128045 0.00448691)
(0.00359396 0.00380986 0.00247282)
(0.000165927 -0.00263633 0.000649461)
(-0.0016086 -0.00350864 1.30765e-05)
(-0.00210667 -0.00181958 -0.000280099)
(-0.00288033 -0.000196168 -0.000745874)
(-0.00386759 0.000792769 -0.00155012)
(-0.00483213 0.00156754 -0.00225477)
(-0.00561953 0.00271294 -0.00254369)
(-0.00616296 0.00459113 -0.00223589)
(-0.00650548 0.00676283 -0.00119352)
(-0.00685161 0.00780167 0.000782609)
(-0.00728965 0.00587394 0.00385822)
(-0.00668181 -0.000593326 0.00834459)
(-0.00629608 -0.0118329 0.0124982)
(-0.00159448 -0.0300332 0.0145396)
(0.00296405 0.00855174 0.0072798)
(0.00562785 0.0102141 0.00945394)
(0.00768769 0.0140303 0.0102784)
(0.00925178 0.0165797 0.00925178)
(0.00937058 0.0134297 0.00749379)
(0.00850086 0.00638462 0.0052774)
(0.00592461 0.000415367 0.00298948)
(0.00290504 -0.00253053 0.00119808)
(0.00142867 -0.00177529 0.000459475)
(0.000670149 0.000256858 0.000384943)
(-9.16377e-05 0.00180923 0.000272894)
(-0.000932674 0.00275544 0.000134578)
(-0.00169659 0.00366031 0.000153592)
(-0.00213683 0.00496687 0.000627849)
(-0.00213904 0.00652529 0.00184809)
(-0.00174182 0.00726666 0.00412279)
(-0.00122102 0.00541029 0.0077389)
(2.26257e-05 -0.000831157 0.012668)
(-0.00183697 -0.0130898 0.0158401)
(0.000322924 -0.0333084 0.0156769)
(0.00418643 -0.0061105 0.00133643)
(0.00806732 0.00420503 0.00731846)
(0.00941859 0.00983938 0.0104112)
(0.0109117 0.0136292 0.0109117)
(0.0117971 0.0126253 0.00982923)
(0.0115647 0.00787996 0.00795243)
(0.0100791 0.00319764 0.00570969)
(0.00791021 0.000127013 0.00343035)
(0.0060925 -0.000348498 0.00196697)
(0.00502748 0.00101208 0.00173416)
(0.00437597 0.0025918 0.00213825)
(0.00386138 0.00375061 0.00266882)
(0.00344043 0.00460636 0.00321241)
(0.00326197 0.0054006 0.00400961)
(0.00346839 0.00609415 0.00543885)
(0.00401356 0.00597261 0.00792945)
(0.00461684 0.00367801 0.0116833)
(0.00462996 -0.00186272 0.0154865)
(0.00145548 -0.013272 0.017429)
(0.00165204 -0.0337078 0.015465)
(0.00237591 -0.0158344 -0.0030234)
(0.0086511 -0.0016377 0.00406129)
(0.00945808 0.00621839 0.0086515)
(0.0104866 0.0109063 0.0104866)
(0.0116062 0.0113637 0.0103257)
(0.0120243 0.00845749 0.00893984)
(0.0116041 0.00508739 0.00697672)
(0.0107056 0.00273242 0.00497409)
(0.00964503 0.00202036 0.00359053)
(0.00881018 0.00257684 0.0033404)
(0.00837579 0.00354491 0.0040055)
(0.00821713 0.00445959 0.00498496)
(0.00823898 0.00518014 0.00600672)
(0.00842876 0.00567191 0.00718047)
(0.00875833 0.00582251 0.00879181)
(0.00905318 0.00523046 0.011138)
(0.00877488 0.00317393 0.0141264)
(0.00722009 -0.00178006 0.0165485)
(0.00323071 -0.0128508 0.0169988)
(0.00271386 -0.0325053 0.0137746)
(-0.000323906 -0.0220004 -0.00606727)
(0.00665548 -0.00568026 0.00136615)
(0.00708341 0.00344526 0.00602593)
(0.00798856 0.00859602 0.00798856)
(0.00923649 0.00963512 0.00815153)
(0.0103435 0.00782274 0.0070487)
(0.0110031 0.00554344 0.00546133)
(0.0112308 0.00414042 0.00405475)
(0.0110208 0.00392557 0.00335607)
(0.0107071 0.00414678 0.00355426)
(0.010697 0.00436807 0.00448625)
(0.0109793 0.00468898 0.00568219)
(0.011391 0.00505498 0.00691181)
(0.0117955 0.00532329 0.00819942)
(0.0120242 0.0053298 0.0096982)
(0.0117814 0.00480348 0.0115403)
(0.0105737 0.00312071 0.0136132)
(0.00836803 -0.00144689 0.0150735)
(0.00430202 -0.0120726 0.0144863)
(0.00385362 -0.0302423 0.0106082)
(-0.00347462 -0.0239182 -0.00948743)
(0.00195405 -0.00857625 -0.00258744)
(0.00162118 0.00271457 0.00195948)
(0.00328833 0.00744935 0.00328833)
(0.00488032 0.00806158 0.00296248)
(0.00664476 0.0068163 0.00158996)
(0.00807288 0.00570393 -0.000124972)
(0.00905996 0.00573501 -0.00147676)
(0.00962048 0.00656464 -0.0016606)
(0.0100627 0.0065247 -0.000794197)
(0.0109117 0.00574871 0.000757788)
(0.011926 0.0053194 0.00237172)
(0.0128518 0.00520715 0.00390103)
(0.0135289 0.00521412 0.00534609)
(0.0137979 0.00517523 0.00680803)
(0.0134388 0.00485651 0.00839376)
(0.0121935 0.00354873 0.0100163)
(0.0102502 -0.000777994 0.0109108)
(0.00626705 -0.010735 0.00994031)
(0.00566746 -0.0262607 0.00629012)
(-0.0077706 -0.0200515 -0.013711)
(-0.00620727 -0.0101481 -0.00916379)
(-0.00796794 -0.00300966 -0.00651988)
(-0.00606177 0.00105872 -0.00606177)
(-0.00438201 0.00172696 -0.00765925)
(-0.00249889 0.00123958 -0.0103311)
(-0.0006966 0.00151784 -0.0134004)
(0.0018299 0.00329546 -0.0156211)
(0.00497791 0.00554346 -0.0156301)
(0.00827086 0.00507843 -0.0141699)
(0.0111927 0.00294263 -0.0117967)
(0.0135158 0.0016764 -0.00900296)
(0.0151449 0.0012444 -0.00626779)
(0.0162266 0.00130475 -0.0037869)
(0.0168414 0.00158305 -0.00153232)
(0.0169151 0.00173284 0.000643899)
(0.0162095 0.000908434 0.002619)
(0.0148186 -0.00224185 0.00359166)
(0.0107407 -0.00893393 0.00307624)
(0.00892607 -0.0195615 0.00101471)
(-0.0151398 -0.0104009 -0.0199291)
(-0.0211848 -0.00308888 -0.020999)
(-0.0265023 0.000711745 -0.0235643)
(-0.0264775 0.00278337 -0.0264775)
(-0.0250909 0.00408125 -0.0304178)
(-0.0225078 0.00530666 -0.035089)
(-0.0182614 0.00688493 -0.0396538)
(-0.0115815 0.00900247 -0.0429662)
(-0.00196663 0.0117024 -0.043339)
(0.0107844 0.0105159 -0.0410273)
(0.0183399 0.00789534 -0.0379501)
(0.0237855 0.00588197 -0.0336877)
(0.0269915 0.004428 -0.0291333)
(0.0286672 0.003396 -0.0247564)
(0.0293925 0.00269145 -0.0206746)
(0.0294558 0.00217372 -0.0168998)
(0.0289042 0.00149172 -0.0135968)
(0.0271314 4.95701e-05 -0.0106624)
(0.0212876 -0.00321147 -0.00775637)
(0.0148641 -0.0100071 -0.00520138)
(0.00110065 0.00464112 -0.0124655)
(0.00104508 0.00537099 -0.0111123)
(-6.83403e-06 0.00465478 -0.0113289)
(-0.00240633 0.00354067 -0.00956115)
(-0.0052843 0.00172658 -0.0052843)
(-0.00623701 -0.000958201 -0.00142669)
(-0.00391834 -0.00254803 1.58048e-05)
(-0.00282024 -0.00221492 0.000452091)
(-0.00328914 -0.00153793 0.000588253)
(-0.00490296 -0.00102036 -0.000591022)
(-0.00633636 -0.000367317 -0.00283249)
(-0.00730367 0.000249869 -0.00562819)
(-0.00757445 0.000780593 -0.00779464)
(-0.00814689 0.00157728 -0.00877842)
(-0.00994873 0.00245544 -0.00820857)
(-0.0134831 0.00268445 -0.00608952)
(-0.0176708 0.00152488 -0.00282477)
(-0.0196852 -0.0011068 0.00109296)
(-0.0169414 -0.00546771 0.00532257)
(-0.00998093 -0.012656 0.00928188)
(0.00124202 0.0112832 -0.0040454)
(0.00205362 0.0126827 -0.00163526)
(0.00242824 0.0117635 -0.00152267)
(0.00132551 0.00951679 -0.00127929)
(-0.000601859 0.00522804 -0.000601859)
(-0.00103716 -0.00127383 -6.44277e-05)
(-0.00143726 -0.00427208 0.000427543)