/*--------------------------------*- C++ -*----------------------------------*\
  =========                 |
  \\      /  F ield         | OpenFOAM: The Open Source CFD Toolbox
   \\    /   O peration     | Website:  https://openfoam.org
    \\  /    A nd           | Version:  8
     \\/     M anipulation  |
\*---------------------------------------------------------------------------*/
FoamFile
{
    version     2.0;
    format      ascii;
    class       volScalarField;
    location    "200";
    object      alphat;
}
// * * * * * * * * * * * * * * * * * * * * * * * * * * * * * * * * * * * * * //

dimensions      [1 -1 -1 0 0 0 0];

internalField   nonuniform List<scalar> 
4000
(
0.000555153
0.000605752
0.000651119
0.000680263
0.000701145
0.000718904
0.000736922
0.000756505
0.000777125
0.000795308
0.000806137
0.000805492
0.000796839
0.000784963
0.000770181
0.000750559
0.000723515
0.000685663
0.000630861
0.000575495
0.000581037
0.000662163
0.000726136
0.000770973
0.00080287
0.000826001
0.000844057
0.000860029
0.00087533
0.000888603
0.000897969
0.000900793
0.00089002
0.000873642
0.000853014
0.000826044
0.000789436
0.000739846
0.000671531
0.000587897
0.000602409
0.00070541
0.000781646
0.000836389
0.000874787
0.000899742
0.00091334
0.000917779
0.000915333
0.000910206
0.000910028
0.000922284
0.000921293
0.000910143
0.0008912
0.000863482
0.000823933
0.000768835
0.000692427
0.000594889
0.000606073
0.000721677
0.000806657
0.000867797
0.000910257
0.00093615
0.000945722
0.000938568
0.000915643
0.000885775
0.000870899
0.000899372
0.000913497
0.00091251
0.000899205
0.00087376
0.000833555
0.00077501
0.000695239
0.00059438
0.000597413
0.000714708
0.000803773
0.000867844
0.000911934
0.000937345
0.000942197
0.000922666
0.000877464
0.000824516
0.000799968
0.000848558
0.00087874
0.000889507
0.000884446
0.000862341
0.000823293
0.000764407
0.000683535
0.00058652
0.000586765
0.000697638
0.000785086
0.000843497
0.000884867
0.000907042
0.000904835
0.000870783
0.000807429
0.000740786
0.000664478
0.000775889
0.000833934
0.000860961
0.000862488
0.000843059
0.000805204
0.000747191
0.000667223
0.000573815
0.000574822
0.00067493
0.000757378
0.000812513
0.000847108
0.000860805
0.000849954
0.000806183
0.000726971
0.000619749
0.000591984
0.000698101
0.000781138
0.000826134
0.000834912
0.000818392
0.000782331
0.000725737
0.000647638
0.000558398
0.000556402
0.00064643
0.000722261
0.000773227
0.000803627
0.000814539
0.000803539
0.000759118
0.000676202
0.000588418
0.00058515
0.000640606
0.00073407
0.000789678
0.000799885
0.000785848
0.000752344
0.000698396
0.000622831
0.000535074
0.000529091
0.000608266
0.000675555
0.000720751
0.000748051
0.000759408
0.000753849
0.000722898
0.000659712
0.000609348
0.000587096
0.000622808
0.000701806
0.00074457
0.000752259
0.000739736
0.000710201
0.000661925
0.0005915
0.000507075
0.000504516
0.000552919
0.000608009
0.000644184
0.000668846
0.000683672
0.000688437
0.000678871
0.000652944
0.000622725
0.000589952
0.000626452
0.000661791
0.00068202
0.000681481
0.000668271
0.000644406
0.000604953
0.000548632
0.000494472
0.000605752
0.000675891
0.0007291
0.000764874
0.000792121
0.000816764
0.000842512
0.00087124
0.000905437
0.000934233
0.000948737
0.000936131
0.000915287
0.000894648
0.000873673
0.000848971
0.000817245
0.000774619
0.000715893
0.000644714
0.000662163
0.0015367
0.0019431
0.00226975
0.00255155
0.00279528
0.00300393
0.00318047
0.00330059
0.00333991
0.00335835
0.0033543
0.00312685
0.00288813
0.0026259
0.00235811
0.0020735
0.00176347
0.00140173
0.000672058
0.00070541
0.0021064
0.00277363
0.00327028
0.0036509
0.00391708
0.00406797
0.00410499
0.00402267
0.00387073
0.0038063
0.00397363
0.00398095
0.00385252
0.00360692
0.00327814
0.00287735
0.00240907
0.00182554
0.000689485
0.000721677
0.00239247
0.00320481
0.00377071
0.0041685
0.00440027
0.00446134
0.00434476
0.00403722
0.00362183
0.00342667
0.00380189
0.0040584
0.00411081
0.00397704
0.00368754
0.00326534
0.00273307
0.00202108
0.000695766
0.000714708
0.00242831
0.00329797
0.00387576
0.00426358
0.0044605
0.00444944
0.00419912
0.00367444
0.002975
0.00263059
0.00322469
0.0037449
0.00398868
0.00395997
0.00373318
0.00334712
0.00281357
0.00204221
0.000692051
0.000697638
0.00223419
0.00308052
0.00364707
0.0040203
0.0041847
0.00411556
0.00374493
0.00300371
0.00213801
0.00183316
0.00247856
0.00309491
0.00351726
0.00363092
0.00349715
0.00318029
0.00268563
0.00192489
0.000676733
0.00067493
0.0019679
0.00270141
0.00316224
0.00345267
0.00357045
0.00346391
0.00301871
0.00228879
0.00158133
0.0014062
0.00199372
0.00254845
0.00298405
0.00313753
0.00308304
0.0028538
0.00243809
0.00175212
0.000652844
0.00064643
0.00169176
0.00227517
0.00260779
0.00278841
0.00283922
0.00273422
0.0024155
0.00193088
0.00136665
0.00120276
0.00169841
0.00212979
0.00245005
0.00259855
0.00259736
0.00245241
0.0021345
0.00156307
0.000621903
0.000608266
0.00140133
0.00180299
0.00200154
0.00208628
0.00209158
0.0020176
0.0018393
0.00156888
0.00118787
0.00101714
0.00132584
0.00166733
0.00187928
0.0019935
0.00201995
0.0019517
0.00175284
0.00134567
0.000579811
0.000552919
0.000644634
0.000703613
0.000739056
0.000759405
0.000768375
0.000766393
0.000748942
0.000711187
0.000670535
0.000628013
0.000669826
0.000720375
0.000754281
0.000763655
0.000757382
0.000737214
0.000699709
0.000629586
0.000527007
0.000651119
0.0007291
0.000783508
0.00081933
0.000848416
0.000880194
0.000920563
0.000969494
0.00101071
0.00104085
0.00105632
0.00104607
0.00101234
0.000975044
0.000946733
0.000917781
0.000883908
0.000840294
0.000780214
0.000701121
0.000726136
0.0019431
0.00254873
0.00301523
0.00340414
0.00374871
0.0040245
0.00415518
0.00421088
0.00420354
0.00420251
0.0042774
0.00423259
0.00406471
0.00367595
0.00325972
0.00281204
0.00232457
0.0017632
0.000742361
0.000781646
0.00277363
0.00380036
0.0045194
0.00502644
0.0053476
0.00548426
0.00542285
0.00520603
0.00488091
0.004719
0.00505195
0.00533079
0.005386
0.00512875
0.00467093
0.00406017
0.00332108
0.00240463
0.000764089
0.000806657
0.00320481
0.00447244
0.00529549
0.00581079
0.0060502
0.00603035
0.00576126
0.00525669
0.00455773
0.0041723
0.00475431
0.00536936
0.00571036
0.00566823
0.00530195
0.00467696
0.00383777
0.00271702
0.000770193
0.000803773
0.00329797
0.0046573
0.00550862
0.00601412
0.00620245
0.00608775
0.00567039
0.00494104
0.00389716
0.00331169
0.00407314
0.00494856
0.00552653
0.00566578
0.00539313
0.00481789
0.00397587
0.00275919
0.000766994
0.000785086
0.00308052
0.0044171
0.00525068
0.00575374
0.00593186
0.00578731
0.00530587
0.00443968
0.00318636
0.00253349
0.00335922
0.00432487
0.00501444
0.00525527
0.00509133
0.00460728
0.00381636
0.00260524
0.000754023
0.000757378
0.00270141
0.00390512
0.00463145
0.00505257
0.00520303
0.00508089
0.00463475
0.00379465
0.00260957
0.00199387
0.00280523
0.00374412
0.00435463
0.00460886
0.00453572
0.00416259
0.00346991
0.00235366
0.000728721
0.000722261
0.00227517
0.00325941
0.00382402
0.0041186
0.00419968
0.00406541
0.00368559
0.00307816
0.00214568
0.00162204
0.00233451
0.00312173
0.00358976
0.00382442
0.00381943
0.00356396
0.0030108
0.00206561
0.000693852
0.000675555
0.00180299
0.00247313
0.00282106
0.00297176
0.00298737
0.00288221
0.00263827
0.0022458
0.00161483
0.0012492
0.00169176
0.00229939
0.0026388
0.00282208
0.0028604
0.00273334
0.00238463
0.0017173
0.000645253
0.000608009
0.000703613
0.000762236
0.000796033
0.000813538
0.000818981
0.000813051
0.000791908
0.00075283
0.000710136
0.000660164
0.000698211
0.000749717
0.000793422
0.00081013
0.000808834
0.000791438
0.000754292
0.000686398
0.000572609
0.000680263
0.000764874
0.00081933
0.000851034
0.000874866
0.000909297
0.000960186
0.00101839
0.0010665
0.00109951
0.0011153
0.00111283
0.00108224
0.00104413
0.00100397
0.000968224
0.000931344
0.000886475
0.000825041
0.000740012
0.000770973
0.00226975
0.00301523
0.00351677
0.00385009
0.00411793
0.00433387
0.00446195
0.00453496
0.00454627
0.0045564
0.00470236
0.00474516
0.00462963
0.00438685
0.00397883
0.00344362
0.00281376
0.00207162
0.000793306
0.000836389
0.00327028
0.0045194
0.00527912
0.00570608
0.005899
0.00593272
0.00584269
0.00562533
0.00527061
0.00505311
0.00544569
0.00587815
0.00607615
0.0060033
0.00562085
0.00496237
0.00406089
0.0028684
0.000820201
0.000867797
0.00377071
0.00529549
0.00616145
0.00659365
0.00669606
0.00655135
0.00623951
0.00575004
0.00503242
0.00452099
0.00508899
0.00588481
0.00641813
0.00657532
0.00630303
0.00565837
0.00467208
0.00324728
0.000824653
0.000867844
0.00387576
0.00550862
0.00642474
0.00686802
0.00693054
0.00669026
0.00623514
0.00555602
0.00459224
0.00381505
0.00446066
0.00550557
0.00627689
0.00658302
0.00638757
0.00578083
0.00479439
0.0032871
0.000817985
0.000843497
0.00364707
0.00525068
0.0061941
0.00668569
0.00678995
0.00655085
0.00601176
0.00522385
0.0041247
0.00316096
0.00382427
0.00499714
0.00585338
0.00617856
0.00603563
0.00549637
0.004559
0.00308022
0.000803415
0.000812513
0.00316224
0.00463145
0.00550785
0.00600622
0.00619964
0.00607416
0.00557767
0.00475155
0.00359023
0.00257505
0.00323001
0.00444816
0.00520351
0.00548629
0.00539762
0.00494682
0.0041007
0.00273883
0.000778789
0.000773227
0.00260779
0.00382402
0.004545
0.00494258
0.00509747
0.0050247
0.00471433
0.00399141
0.0028938
0.00201266
0.00262326
0.00372098
0.0043102
0.00457213
0.00454468
0.00420894
0.00351055
0.00235559
0.000742322
0.000720751
0.00200154
0.00282106
0.00327239
0.00348957
0.00354812
0.00346754
0.00323112
0.00273037
0.00197132
0.00143034
0.00184803
0.00263404
0.00308059
0.00329439
0.00332677
0.00315272
0.00270985
0.00190233
0.00069046
0.000644184
0.000739056
0.000796033
0.000828489
0.000844749
0.000848973
0.000841508
0.000818643
0.000785338
0.000743126
0.000688109
0.000715054
0.000767399
0.00081118
0.00083367
0.000836298
0.000821419
0.000785797
0.000720265
0.000610997
0.000701145
0.000792121
0.000848416
0.000874866
0.000879861
0.000895434
0.00094022
0.000998612
0.00106927
0.00112499
0.00115592
0.00115632
0.00112956
0.00109237
0.00105272
0.00101114
0.000968893
0.000921382
0.000857994
0.000768039
0.00080287
0.00255155
0.00340414
0.00385009
0.00394621
0.00390004
0.00400305
0.00426263
0.00446603
0.00462916
0.00473973
0.00492348
0.00503299
0.00495592
0.00475603
0.00445317
0.00396322
0.00325028
0.00234617
0.000830417
0.000874787
0.0036509
0.00502644
0.00570608
0.00591408
0.00583933
0.00571904
0.00570813
0.00567046
0.00546511
0.00525286
0.00556896
0.0060735
0.0063635
0.00639579
0.00616654
0.00559854
0.00464649
0.00324785
0.000859724
0.000910257
0.0041685
0.00581079
0.00659365
0.00684619
0.00675919
0.00650712
0.00624551
0.0059628
0.005413
0.00481584
0.00514171
0.00598998
0.00664508
0.00693638
0.00683355
0.00627669
0.00525725
0.00363398
0.000863206
0.000911934
0.00426358
0.00601412
0.00686802
0.00716237
0.00707503
0.00677078
0.00637763
0.0059134
0.00516227
0.00428312
0.00454814
0.00561956
0.00651927
0.00697091
0.00691069
0.00635515
0.00532591
0.00365392
0.000850008
0.000884867
0.0040203
0.00575374
0.00668569
0.00708763
0.00707354
0.0067654
0.00628139
0.00568617
0.00480808
0.00376384
0.00396742
0.00518054
0.00618024
0.0066408
0.00654744
0.00600794
0.00500967
0.00337704
0.000831389
0.000847108
0.00345267
0.00505257
0.00600622
0.00655185
0.00673743
0.00652428
0.00599555
0.00527596
0.00430513
0.00318378
0.00335879
0.00465722
0.00561877
0.00596492
0.00586613
0.00537649
0.00445427
0.00296505
0.000805832
0.000803627
0.00278841
0.0041186
0.00494258
0.0054463
0.00571479
0.00574627
0.00535895
0.00459015
0.00356036
0.00247783
0.00266412
0.00392333
0.0047094
0.00498146
0.00492661
0.00453948
0.00376498
0.00251073
0.000769836
0.000748051
0.00208628
0.00297176
0.00348957
0.00377669
0.00391475
0.00392494
0.00377654
0.0032132
0.00237173
0.001649
0.00183796
0.00270689
0.00331358
0.00352013
0.00354141
0.00333921
0.00285038
0.00198475
0.000718239
0.000668846
0.000759405
0.000813538
0.000844749
0.000860915
0.000865846
0.000859177
0.000841049
0.000814764
0.000774188
0.000718636
0.000720322
0.000776748
0.000814963
0.000841407
0.000847821
0.000835727
0.000802725
0.000741105
0.000638423
0.000718904
0.000816764
0.000880194
0.000909297
0.000895434
0.000865956
0.00089618
0.000967014
0.00103868
0.00110332
0.00115853
0.00117699
0.00116013
0.00112788
0.00108843
0.00104828
0.00100221
0.000949643
0.000883429
0.000789004
0.000826001
0.00279528
0.00374871
0.00411793
0.00390004
0.00332326
0.00300697
0.003281
0.00390871
0.00447539
0.00481767
0.00503044
0.00516543
0.00512362
0.00495332
0.00469055
0.00430491
0.00361773
0.00258291
0.000857214
0.000899742
0.00391708
0.0053476
0.005899
0.00583933
0.00535205
0.00484195
0.00480673
0.00527581
0.00557833
0.00553821
0.00561787
0.00604964
0.00638805
0.00649433
0.00635678
0.00593133
0.00504048
0.00352792
0.000885846
0.00093615
0.00440027
0.0060502
0.00669606
0.00675919
0.00646917
0.00602914
0.0057601
0.00591566
0.00589207
0.00534814
0.00515456
0.00581257
0.00653562
0.00693121
0.00694077
0.00652538
0.00556212
0.0038652
0.000885442
0.000937345
0.0044605
0.00620245
0.00693054
0.00707503
0.00691463
0.00662563
0.00632636
0.00623731
0.00594331
0.00500957
0.0045771
0.00538141
0.00636072
0.00694267
0.00701191
0.00654656
0.00553377
0.00382349
0.000864437
0.000907042
0.0041847
0.00593186
0.00678995
0.00707354
0.00700306
0.00680498
0.00655765
0.00630594
0.00573984
0.00456939
0.00403941
0.00494883
0.0060621
0.00667818
0.00669325
0.00616856
0.00514101
0.00346307
0.000839132
0.000860805
0.00357045
0.00520303
0.00619964
0.00673743
0.00684514
0.00668697
0.006416
0.00602817
0.00523654
0.00395384
0.00344737
0.00444192
0.00558323
0.006095
0.00602057
0.00550762
0.00454689
0.00302132
0.000809841
0.000814539
0.00283922
0.00419968
0.00509747
0.00571479
0.00610428
0.00613977
0.00582932
0.00528318
0.00436545
0.00312476
0.00271497
0.00371771
0.00474227
0.00513023
0.00505213
0.00463146
0.00382394
0.00254695
0.000776674
0.000759408
0.00209158
0.00298737
0.00354812
0.00391475
0.00417926
0.00437556
0.00432323
0.00383394
0.00297404
0.00202675
0.00181229
0.00258013
0.00326835
0.00357797
0.00358241
0.00336733
0.00286602
0.00199608
0.000729731
0.000683672
0.000768375
0.000818981
0.000848973
0.000865846
0.000873407
0.000871818
0.000870731
0.000870316
0.000833157
0.000760306
0.000722809
0.000778956
0.00081622
0.000837136
0.000847342
0.000838439
0.000808714
0.000751742
0.000655907
0.000736922
0.000842512
0.000920563
0.000960186
0.00094022
0.00089618
0.000860198
0.000927334
0.00101197
0.001069
0.00110856
0.00115046
0.00116904
0.00115462
0.00111398
0.00107557
0.00103247
0.000974316
0.00090424
0.000805231
0.000844057
0.00300393
0.0040245
0.00433387
0.00400305
0.00300697
0.00217938
0.00224097
0.0030332
0.0038544
0.00462133
0.00500191
0.0051295
0.00513157
0.00500907
0.00478812
0.00445812
0.00390706
0.00278097
0.000876445
0.00091334
0.00406797
0.00548426
0.00593272
0.00571904
0.00484195
0.0037355
0.00341215
0.00423703
0.00522457
0.00569799
0.00571529
0.00586157
0.00618671
0.00635844
0.00629746
0.00596278
0.00522085
0.00370244
0.000901288
0.000945722
0.00446134
0.00603035
0.00655135
0.00650712
0.00602914
0.00518126
0.0045847
0.00509054
0.00593508
0.0059335
0.00538977
0.00550216
0.00614837
0.00663246
0.00673229
0.00640866
0.00556855
0.0039296
0.000893132
0.000942197
0.00444944
0.00608775
0.00669026
0.00677078
0.00662563
0.00623228
0.00568745
0.00583847
0.00639381
0.00597026
0.00490704
0.00498472
0.00587382
0.00656855
0.00674372
0.00635835
0.00538876
0.00374869
0.000862202
0.000904835
0.00411556
0.00578731
0.00655085
0.0067654
0.00680498
0.00680113
0.00654506
0.00646839
0.00663564
0.00579748
0.00443451
0.00452179
0.00555449
0.00632696
0.00646668
0.0059761
0.00492313
0.00329041
0.000825255
0.000849954
0.00346391
0.00508089
0.00607416
0.00652428
0.00668697
0.00686185
0.0069381
0.00679678
0.00653642
0.00524633
0.00384319
0.00402387
0.00511643
0.00584494
0.00588029
0.00535598
0.00436902
0.00286095
0.000787261
0.000803539
0.00273422
0.00406541
0.0050247
0.00574627
0.00613977
0.00636741
0.00658472
0.00648631
0.00581727
0.00424299
0.00304499
0.00334173
0.00437977
0.00495795
0.00495942
0.00451585
0.00369975
0.00244787
0.000758088
0.000753849
0.0020176
0.00288221
0.00346754
0.00392494
0.00437556
0.00477336
0.00508368
0.00505193
0.0041336
0.00280159
0.00200552
0.00230957
0.00304216
0.00342889
0.00348133
0.00326576
0.00277545
0.00193761
0.000721912
0.000688437
0.000766393
0.000813051
0.000841508
0.000859177
0.000871818
0.000892226
0.000935238
0.00116901
0.00111145
0.00091951
0.000766029
0.000769818
0.000811747
0.000829395
0.000835256
0.000829454
0.00080311
0.000750759
0.000662026
0.000756505
0.00087124
0.000969494
0.00101839
0.000998612
0.000967014
0.000927334
0.00093247
0.00100416
0.00105779
0.00109636
0.00112917
0.00116926
0.00116787
0.00113051
0.0010944
0.0010555
0.000999771
0.00092233
0.000818006
0.000860029
0.00318047
0.00415518
0.00446195
0.00426263
0.003281
0.00224097
0.00180513
0.00215209
0.00294212
0.00385522
0.00472092
0.00490526
0.00495564
0.00492586
0.00476995
0.00450189
0.0040269
0.00293839
0.000890241
0.000917779
0.00410499
0.00542285
0.00584269
0.00570813
0.00480673
0.00341215
0.00260731
0.0030107
0.00419174
0.00525675
0.00564805
0.00556687
0.00576369
0.00600495
0.00603015
0.0057862
0.00517145
0.00377734
0.000908323
0.000938568
0.00434476
0.00576126
0.00623951
0.00624551
0.0057601
0.0045847
0.00350262
0.00376149
0.00508496
0.00593197
0.00564494
0.00519814
0.00556639
0.00608023
0.00625819
0.00601094
0.0052886
0.0038381
0.000887743
0.000922666
0.00419912
0.00567039
0.00623514
0.00637763
0.00632636
0.00568745
0.00459107
0.00452274
0.00577704
0.00633296
0.00541594
0.00468307
0.0051903
0.00590667
0.00616487
0.00582797
0.00491933
0.00343291
0.000843946
0.000870783
0.00374493
0.00530587
0.00601176
0.00628139
0.00655765
0.00654506
0.00579817
0.00541258
0.00636887
0.00651036
0.0050986
0.00422454
0.00481363
0.00563471
0.0058899
0.00544013
0.00439971
0.00287641
0.000787392
0.000806183
0.00301871
0.00463475
0.00557767
0.00599555
0.006416
0.0069381
0.00682717
0.00635882
0.00681415
0.00643061
0.00463991
0.00374237
0.00437666
0.00519817
0.00538762
0.00493255
0.00394678
0.00250697
0.000733409
0.000759118
0.0024155
0.00368559
0.00471433
0.00535895
0.00582932
0.00658472
0.00716925
0.00696635
0.00688104
0.00584047
0.00385474
0.00310555
0.0037306
0.00443517
0.00455546
0.00419887
0.00340993
0.00223113
0.000699779
0.000722898
0.0018393
0.00263827
0.00323112
0.00377654
0.00432323
0.00508368
0.00607346
0.00641075
0.00592011
0.00427986
0.00264955
0.00216955
0.00262735
0.0030617
0.00318651
0.00302995
0.00257525
0.00180791
0.000686301
0.000678871
0.000748942
0.000791908
0.000818643
0.000841049
0.000870731
0.000935238
0.00128781
0.00180546
0.00173318
0.00136444
0.000988924
0.000792299
0.000799402
0.000814901
0.000815804
0.000805165
0.000781387
0.000733248
0.000652798
0.000777125
0.000905437
0.00101071
0.0010665
0.00106927
0.00103868
0.00101197
0.00100416
0.00106781
0.0011092
0.00113432
0.001158
0.00117569
0.00116942
0.00113803
0.00110656
0.0010728
0.0010213
0.000937208
0.000827711
0.00087533
0.00330059
0.00421088
0.00453496
0.00446603
0.00390871
0.0030332
0.00215209
0.0019097
0.00237744
0.00338758
0.00437329
0.00454645
0.00463542
0.00471994
0.00465917
0.00447082
0.00406957
0.00308028
0.000900073
0.000915333
0.00402267
0.00520603
0.00562533
0.00567046
0.00527581
0.00423703
0.0030107
0.00263222
0.00341457
0.00472626
0.00531676
0.00511163
0.00515341
0.00546191
0.00559232
0.00545854
0.00497274
0.0037827
0.000908945
0.000915643
0.00403722
0.00525669
0.00575004
0.0059628
0.00591566
0.00509054
0.00376149
0.00326426
0.00424579
0.00553014
0.00555479
0.00484943
0.00485331
0.00532146
0.00555899
0.00540348
0.00481047
0.00362758
0.000871387
0.000877464
0.00367444
0.00494104
0.00555602
0.0059134
0.00623731
0.00583847
0.00452274
0.00383107
0.00488679
0.00606964
0.00559468
0.00444235
0.00445554
0.00503624
0.00531291
0.00504035
0.00423407
0.00296088
0.000811431
0.000807429
0.00300371
0.00443968
0.00522385
0.00568617
0.00630594
0.00646839
0.00541258
0.00443973
0.00541627
0.00642911
0.00544093
0.00405353
0.00406308
0.00470821
0.00498328
0.00461316
0.00369222
0.00236732
0.00072376
0.000726971
0.00228879
0.00379465
0.00475155
0.00527596
0.00602817
0.00679678
0.00635882
0.00524244
0.00594556
0.00651124
0.00513319
0.0036477
0.00363137
0.00427137
0.00451592
0.0041684
0.00332857
0.00209787
0.000653132
0.000676202
0.00193088
0.00307816
0.00399141
0.00459015
0.00528318
0.00648631
0.00696635
0.00615875
0.00641818
0.00629988
0.00455402
0.00308635
0.00305847
0.00360604
0.00378989
0.00354156
0.0029408
0.00198558
0.000616657
0.000659712
0.00156888
0.0022458
0.00273037
0.0032132
0.00383394
0.00505193
0.00641075
0.00641012
0.00629199
0.00545072
0.00349987
0.00225067
0.00218255
0.00251003
0.00262279
0.00252398
0.0022074
0.0016227
0.000634051
0.000652944
0.000711187
0.00075283
0.000785338
0.000814764
0.000870316
0.00116901
0.00180546
0.00200123
0.00196612
0.00181043
0.00141549
0.000981717
0.000794561
0.000790919
0.000787949
0.00077285
0.000744315
0.000697716
0.000632566
0.000795308
0.000934233
0.00104085
0.00109951
0.00112499
0.00110332
0.001069
0.00105779
0.0011092
0.00115677
0.00117478
0.0011918
0.00118489
0.00116784
0.00113976
0.00111471
0.00108595
0.0010383
0.000948775
0.000834333
0.000888603
0.00333991
0.00420354
0.00454627
0.00462916
0.00447539
0.0038544
0.00294212
0.00237744
0.00248808
0.00336031
0.00415189
0.00420253
0.00430001
0.00447272
0.00450781
0.00440402
0.0040777
0.00321901
0.000906524
0.000910206
0.00387073
0.00488091
0.00527061
0.00546511
0.00557833
0.00522457
0.00419174
0.00341457
0.0036811
0.00466154
0.00483868
0.00446927
0.00447171
0.00483801
0.00508252
0.00507976
0.00473181
0.00373534
0.000904788
0.000885775
0.00362183
0.00455773
0.00503242
0.005413
0.00589207
0.00593508
0.00508496
0.00424579
0.0045746
0.00535471
0.00507629
0.0042414
0.00404945
0.00444571
0.00473474
0.00471503
0.00429298
0.00333555
0.000849705
0.000824516
0.002975
0.00389716
0.00459224
0.00516227
0.00594331
0.00639381
0.00577704
0.00488679
0.00519893
0.00582707
0.00523864
0.00395268
0.00366037
0.00404182
0.00426422
0.00411413
0.00354095
0.00252103
0.000767842
0.000740786
0.00213801
0.00318636
0.0041247
0.00480808
0.00573984
0.00663564
0.00636887
0.00541627
0.0056297
0.00616231
0.00522292
0.00364157
0.00331055
0.00366573
0.00381323
0.00355049
0.00293169
0.00197232
0.000633143
0.000619749
0.00158133
0.00260957
0.00359023
0.00430513
0.00523654
0.00653642
0.00681415
0.00594556
0.00596394
0.00624975
0.00496137
0.0033245
0.00293554
0.00324228
0.00334745
0.00307188
0.00250042
0.00170958
0.000590384
0.000588418
0.00136665
0.00214568
0.0028938
0.00356036
0.00436545
0.00581727
0.00688104
0.00641818
0.00625131
0.00605971
0.00447257
0.00286461
0.00245864
0.00268881
0.00275995
0.00256429
0.00215205
0.00151814
0.000591332
0.000609348
0.00118787
0.00161483
0.00197132
0.00237173
0.00297404
0.0041336
0.00592011
0.00629199
0.00604232
0.0053127
0.00354537
0.00215511
0.00178325
0.00189732
0.00193604
0.00184668
0.00162928
0.0012554
0.000598167
0.000622725
0.000670535
0.000710136
0.000743126
0.000774188
0.000833157
0.00111145
0.00173318
0.00196612
0.00190425
0.001771
0.00143022
0.0010453
0.000790432
0.000754467
0.000748002
0.000731225
0.000703046
0.0006612
0.000606255
0.000806137
0.000948737
0.00105632
0.0011153
0.00115592
0.00115853
0.00110856
0.00109636
0.00113432
0.00117478
0.00119203
0.00121023
0.00119391
0.00117017
0.0011442
0.00112247
0.00109571
0.00104929
0.000957997
0.000837533
0.000897969
0.00335835
0.00420251
0.0045564
0.00473973
0.00481767
0.00462133
0.00385522
0.00338758
0.00336031
0.00397806
0.00404534
0.00401362
0.00414695
0.00436091
0.00443861
0.00437848
0.00408707
0.00328318
0.000909436
0.000910028
0.0038063
0.004719
0.00505311
0.00525286
0.00553821
0.00569799
0.00525675
0.00472626
0.00466154
0.00472841
0.00429664
0.00390962
0.00405437
0.0045102
0.00482827
0.00491483
0.00464032
0.00369939
0.000901355
0.000870899
0.00342667
0.0041723
0.00452099
0.00481584
0.00534814
0.0059335
0.00593197
0.00553014
0.00535471
0.00507695
0.00427222
0.00344188
0.00345268
0.00392225
0.00428406
0.00439207
0.00408924
0.00319307
0.000836619
0.000799968
0.00263059
0.00331169
0.00381505
0.00428312
0.00500957
0.00597026
0.00633296
0.00606964
0.00582707
0.00542553
0.00434379
0.00313549
0.00300226
0.00337693
0.0036339
0.00364202
0.00326336
0.00236021
0.000700206
0.000664478
0.00183316
0.00253349
0.00316096
0.00376384
0.00456939
0.00579748
0.00651036
0.00642911
0.00616231
0.00571775
0.00431716
0.00288112
0.00264882
0.00291374
0.00305179
0.00296299
0.00259294
0.00185273
0.000608626
0.000591984
0.0014062
0.00199387
0.00257505
0.00318378
0.00395384
0.00524633
0.00643061
0.00651124
0.00624975
0.00568462
0.00406993
0.00262897
0.00230778
0.00247326
0.00253736
0.00242368
0.00210632
0.00154816
0.000595917
0.00058515
0.00120276
0.00162204
0.00201266
0.00247783
0.00312476
0.00424299
0.00584047
0.00629988
0.00605971
0.00529534
0.00359654
0.00226312
0.00191393
0.00199924
0.00203159
0.00195076
0.0017213
0.00131504
0.000592363
0.000587096
0.00101714
0.0012492
0.00143034
0.001649
0.00202675
0.00280159
0.00427986
0.00545072
0.0053127
0.00434302
0.00277344
0.00172234
0.0014106
0.00143363
0.00145331
0.00141707
0.00129949
0.00106314
0.000584303
0.000589952
0.000628013
0.000660164
0.000688109
0.000718636
0.000760306
0.00091951
0.00136444
0.00181043
0.001771
0.00159869
0.0012841
0.000950095
0.000741654
0.000703368
0.000694681
0.000680257
0.000657224
0.000623188
0.000576737
0.000805492
0.000936131
0.00104607
0.00111283
0.00115632
0.00117699
0.00115046
0.00112917
0.001158
0.0011918
0.00121023
0.00121256
0.00120433
0.0011842
0.00115639
0.0011275
0.00109232
0.00103802
0.000949272
0.000833234
0.000900793
0.0033543
0.0042774
0.00470236
0.00492348
0.00503044
0.00500191
0.00472092
0.00437329
0.00415189
0.00404534
0.00399852
0.00412605
0.00443335
0.00460132
0.00461837
0.00448933
0.00412309
0.00314173
0.000907322
0.000922284
0.00397363
0.00505195
0.00544569
0.00556896
0.00561787
0.00571529
0.00564805
0.00531676
0.00483868
0.00429664
0.00386093
0.00392542
0.00451382
0.00504072
0.00531779
0.00532537
0.00495212
0.00382598
0.000914077
0.000899372
0.00380189
0.00475431
0.00508899
0.00514171
0.00515456
0.00538977
0.00564494
0.00555479
0.00507629
0.00427222
0.00340587
0.00326743
0.0039347
0.00462921
0.00503865
0.00509462
0.00469976
0.0036441
0.000875885
0.000848558
0.00322469
0.00407314
0.00446066
0.00454814
0.0045771
0.00490704
0.00541594
0.00559468
0.00523864
0.00434379
0.00313462
0.00279071
0.00341107
0.00413854
0.00456556
0.00456719
0.00405629
0.00296574
0.000811037
0.000775889
0.00247856
0.00335922
0.00382427
0.00396742
0.00403941
0.00443451
0.0050986
0.00544093
0.00522292
0.00431716
0.00296447
0.00245726
0.00296058
0.003653
0.0040515
0.00400675
0.00347275
0.00241148
0.000727026
0.000698101
0.00199372
0.00280523
0.00323001
0.00335879
0.00344737
0.00384319
0.00463991
0.00513319
0.00496137
0.00406993
0.00275131
0.00216237
0.00252308
0.00313798
0.00349839
0.00345191
0.00299624
0.00209072
0.000641177
0.000640606
0.00169841
0.00233451
0.00262326
0.00266412
0.00271497
0.00304499
0.00385474
0.00455402
0.00447257
0.00359654
0.00239547
0.00182155
0.00205051
0.00253707
0.00281131
0.00279912
0.00248827
0.00182228
0.000599675
0.000622808
0.00132584
0.00169176
0.00184803
0.00183796
0.00181229
0.00200552
0.00264955
0.00349987
0.00354537
0.00277344
0.00184771
0.00138148
0.00148726
0.00176854
0.00192095
0.00192987
0.0017704
0.00138222
0.000614301
0.000626452
0.000669826
0.000698211
0.000715054
0.000720322
0.000722809
0.000766029
0.000988924
0.00141549
0.00143022
0.0012841
0.00103344
0.000779898
0.00070534
0.000723319
0.000727534
0.000718651
0.000697375
0.000662571
0.000609775
0.000796839
0.000915287
0.00101234
0.00108224
0.00112956
0.00116013
0.00116904
0.00116926
0.00117569
0.00118489
0.00119391
0.00120433
0.00120536
0.00117698
0.00114511
0.00111206
0.00107235
0.00101393
0.0009338
0.000823206
0.00089002
0.00312685
0.00423259
0.00474516
0.00503299
0.00516543
0.0051295
0.00490526
0.00454645
0.00420253
0.00401362
0.00412605
0.00452805
0.00476033
0.00479849
0.00472047
0.00451054
0.00406391
0.00295294
0.000895827
0.000921293
0.00398095
0.00533079
0.00587815
0.0060735
0.00604964
0.00586157
0.00556687
0.00511163
0.00446927
0.00390962
0.00392542
0.00464156
0.00530683
0.00568731
0.00582477
0.00569214
0.00516447
0.00379214
0.000911638
0.000913497
0.0040584
0.00536936
0.00588481
0.00598998
0.00581257
0.00550216
0.00519814
0.00484943
0.0042414
0.00344188
0.00326743
0.00409962
0.00502666
0.00563896
0.00590698
0.00579767
0.00522261
0.00385984
0.000891192
0.00087874
0.0037449
0.00494856
0.00550557
0.00561956
0.00538141
0.00498472
0.00468307
0.00444235
0.00395268
0.00313549
0.00279071
0.00359795
0.00466697
0.00540263
0.00569438
0.00550476
0.00480028
0.00346049
0.00084832
0.000833934
0.00309491
0.00432487
0.00499714
0.00518054
0.00494883
0.00452179
0.00422454
0.00405353
0.00364157
0.00288112
0.00245726
0.00315658
0.00428739
0.00507371
0.00533338
0.00506412
0.00426089
0.00290728
0.000794372
0.000781138
0.00254845
0.00374412
0.00444816
0.00465722
0.00444192
0.00402387
0.00374237
0.0036477
0.0033245
0.00262897
0.00216237
0.00272098
0.00382306
0.00456454
0.00478828
0.00453371
0.00378143
0.00250267
0.000736257
0.00073407
0.00212979
0.00312173
0.00372098
0.00392333
0.00371771
0.00334173
0.00310555
0.00308635
0.00286461
0.00226312
0.00182155
0.00223223
0.00316703
0.00375218
0.00396845
0.0038037
0.00322771
0.00218616
0.000699349
0.000701806
0.00166733
0.00229939
0.00263404
0.00270689
0.00258013
0.00230957
0.00216955
0.00225067
0.00215511
0.00172234
0.00138148
0.00162452
0.00218132
0.00253218
0.00271547
0.00268335
0.00238406
0.00171742
0.000672131
0.000661791
0.000720375
0.000749717
0.000767399
0.000776748
0.000778956
0.000769818
0.000792299
0.000981717
0.0010453
0.000950095
0.000779898
0.000719542
0.000755894
0.000772188
0.000774171
0.000764663
0.000741823
0.000704965
0.000638214
0.000784963
0.000894648
0.000975044
0.00104413
0.00109237
0.00112788
0.00115462
0.00116787
0.00116942
0.00116784
0.00117017
0.0011842
0.00117698
0.00115225
0.00112215
0.00108844
0.00104611
0.00098777
0.000914774
0.000809473
0.000873642
0.00288813
0.00406471
0.00462963
0.00495592