/*--------------------------------*- C++ -*----------------------------------*\
  =========                 |
  \\      /  F ield         | OpenFOAM: The Open Source CFD Toolbox
   \\    /   O peration     | Website:  https://openfoam.org
    \\  /    A nd           | Version:  8
     \\/     M anipulation  |
\*---------------------------------------------------------------------------*/
FoamFile
{
    version     2.0;
    format      ascii;
    class       volScalarField;
    location    "200";
    object      epsilon;
}
// * * * * * * * * * * * * * * * * * * * * * * * * * * * * * * * * * * * * * //

dimensions      [0 2 -3 0 0 0 0];

internalField   nonuniform List<scalar> 
4000
(
1.86094e-06
2.45629e-06
3.02374e-06
3.43275e-06
3.74095e-06
4.00528e-06
4.27483e-06
4.5756e-06
4.90755e-06
5.22494e-06
5.42867e-06
5.41651e-06
5.26176e-06
5.04541e-06
4.77584e-06
4.42979e-06
3.97986e-06
3.40265e-06
2.67735e-06
2.01003e-06
2.11741e-06
3.14626e-06
4.13209e-06
4.9369e-06
5.57069e-06
6.05869e-06
6.4467e-06
6.78465e-06
7.10434e-06
7.38063e-06
7.56556e-06
7.59051e-06
7.32248e-06
6.94931e-06
6.48244e-06
5.89723e-06
5.15823e-06
4.2591e-06
3.20696e-06
2.13911e-06
2.33389e-06
3.71872e-06
5.04479e-06
6.1752e-06
7.06826e-06
7.70208e-06
8.07659e-06
8.21771e-06
8.17556e-06
8.03235e-06
7.97485e-06
8.20105e-06
8.1312e-06
7.84367e-06
7.37385e-06
6.71545e-06
5.84311e-06
4.76301e-06
3.49902e-06
2.20976e-06
2.37719e-06
3.93776e-06
5.46281e-06
6.78532e-06
7.8279e-06
8.52828e-06
8.83035e-06
8.70173e-06
8.18125e-06
7.48738e-06
7.12006e-06
7.68208e-06
7.95481e-06
7.90148e-06
7.55802e-06
6.93931e-06
6.04046e-06
4.87105e-06
3.52469e-06
2.20425e-06
2.28823e-06
3.82049e-06
5.36028e-06
6.7095e-06
7.76341e-06
8.42934e-06
8.59319e-06
8.15894e-06
7.17314e-06
6.0647e-06
5.58855e-06
6.48747e-06
7.08657e-06
7.31914e-06
7.17935e-06
6.66369e-06
5.80766e-06
4.66484e-06
3.3498e-06
2.12508e-06
2.17592e-06
3.55966e-06
5.0039e-06
6.16564e-06
7.04471e-06
7.56077e-06
7.52238e-06
6.79515e-06
5.59239e-06
4.46943e-06
3.40537e-06
5.04916e-06
6.08729e-06
6.62087e-06
6.63998e-06
6.21192e-06
5.42945e-06
4.35966e-06
3.125e-06
2.00141e-06
2.05044e-06
3.23473e-06
4.50275e-06
5.5183e-06
6.21926e-06
6.51037e-06
6.28127e-06
5.42009e-06
4.07986e-06
2.6209e-06
2.13568e-06
3.65579e-06
5.01164e-06
5.83982e-06
6.00797e-06
5.66954e-06
4.97204e-06
3.99399e-06
2.86407e-06
1.85483e-06
1.87194e-06
2.85242e-06
3.91298e-06
4.76384e-06
5.32797e-06
5.5403e-06
5.32535e-06
4.49834e-06
3.19499e-06
2.05522e-06
2.01e-06
2.79493e-06
4.14348e-06
5.08008e-06
5.269e-06
5.006e-06
4.41045e-06
3.55373e-06
2.55182e-06
1.65235e-06
1.60217e-06
2.38075e-06
3.20369e-06
3.86202e-06
4.30575e-06
4.50151e-06
4.40445e-06
3.88042e-06
2.92997e-06
2.27711e-06
2.05854e-06
2.49945e-06
3.58015e-06
4.24404e-06
4.37086e-06
4.16089e-06
3.69327e-06
3.00969e-06
2.17645e-06
1.38818e-06
1.33869e-06
1.79163e-06
2.33003e-06
2.75776e-06
3.08162e-06
3.28952e-06
3.35765e-06
3.21547e-06
2.84954e-06
2.45528e-06
2.10167e-06
2.53251e-06
2.98418e-06
3.25342e-06
3.24064e-06
3.05428e-06
2.73874e-06
2.28797e-06
1.70644e-06
1.23667e-06
2.45629e-06
3.38123e-06
4.21196e-06
4.8388e-06
5.34246e-06
5.81046e-06
6.31747e-06
6.90268e-06
7.61982e-06
8.31662e-06
8.7016e-06
8.36929e-06
7.89783e-06
7.40466e-06
6.91368e-06
6.35825e-06
5.68698e-06
4.85892e-06
3.84799e-06
2.80892e-06
3.14626e-06
3.51952e-06
4.23571e-06
4.69593e-06
5.00681e-06
5.24512e-06
5.46263e-06
5.68417e-06
5.93195e-06
6.15872e-06
6.27826e-06
6.1458e-06
5.96501e-06
5.81053e-06
5.68582e-06
5.50453e-06
5.16993e-06
4.59868e-06
3.74336e-06
3.18672e-06
3.71872e-06
3.81357e-06
4.49175e-06
4.9723e-06
5.32197e-06
5.60495e-06
5.85641e-06
6.08176e-06
6.26273e-06
6.37772e-06
6.44018e-06
6.3575e-06
5.99359e-06
5.67631e-06
5.46069e-06
5.26747e-06
4.9718e-06
4.46695e-06
3.72148e-06
3.41728e-06
3.93776e-06
3.89255e-06
4.56522e-06
5.09904e-06
5.51169e-06
5.84061e-06
6.09915e-06
6.26569e-06
6.28547e-06
6.17814e-06
6.17508e-06
6.4993e-06
6.16222e-06
5.74088e-06
5.40828e-06
5.12317e-06
4.76641e-06
4.2551e-06
3.60899e-06
3.50205e-06
3.82049e-06
3.75928e-06
4.42684e-06
4.99031e-06
5.4289e-06
5.75516e-06
5.96533e-06
6.02143e-06
5.85438e-06
5.35917e-06
5.11248e-06
6.14834e-06
6.10335e-06
5.70413e-06
5.30001e-06
4.93202e-06
4.51755e-06
3.99885e-06
3.43544e-06
3.4457e-06
3.55966e-06
3.53437e-06
4.16201e-06
4.7065e-06
5.11939e-06
5.38916e-06
5.50515e-06
5.41959e-06
5.04052e-06
4.05924e-06
3.55454e-06
5.1665e-06
5.62336e-06
5.48082e-06
5.12638e-06
4.73564e-06
4.28366e-06
3.75651e-06
3.23293e-06
3.2283e-06
3.23473e-06
3.29444e-06
3.87787e-06
4.39861e-06
4.76662e-06
4.95122e-06
4.93998e-06
4.65171e-06
3.98128e-06
2.84131e-06
2.48711e-06
3.96076e-06
4.81066e-06
5.03397e-06
4.85023e-06
4.51347e-06
4.06603e-06
3.54168e-06
3.03188e-06
2.9105e-06
2.85242e-06
3.04931e-06
3.59982e-06
4.0853e-06
4.41664e-06
4.55407e-06
4.46236e-06
4.03914e-06
3.20417e-06
2.46476e-06
2.41114e-06
3.15803e-06
4.0308e-06
4.48147e-06
4.48818e-06
4.25211e-06
3.85095e-06
3.34232e-06
2.81707e-06
2.52853e-06
2.38075e-06
2.72524e-06
3.26306e-06
3.701e-06
3.99284e-06
4.11959e-06
4.04632e-06
3.66937e-06
3.01034e-06
2.74439e-06
2.67811e-06
2.82047e-06
3.43813e-06
3.92868e-06
4.03884e-06
3.89601e-06
3.56712e-06
3.08838e-06
2.51697e-06
2.0575e-06
1.79163e-06
2.77687e-06
3.58114e-06
4.13959e-06
4.48948e-06
4.65233e-06
4.6166e-06
4.30213e-06
3.66698e-06
3.05253e-06
2.52407e-06
3.09831e-06
3.85022e-06
4.39813e-06
4.55221e-06
4.43429e-06
4.08634e-06
3.49695e-06
2.58691e-06
1.52188e-06
3.02374e-06
4.21196e-06
5.20226e-06
5.92856e-06
6.53941e-06
7.2199e-06
8.16447e-06
9.38886e-06
1.05272e-05
1.14339e-05
1.19281e-05
1.15698e-05
1.05646e-05
9.50992e-06
8.73502e-06
7.97826e-06
7.14613e-06
6.15753e-06
4.94148e-06
3.58648e-06
4.13209e-06
4.23571e-06
4.86372e-06
5.22441e-06
5.46226e-06
5.66074e-06
5.86549e-06
6.12132e-06
6.36465e-06
6.5562e-06
6.67443e-06
6.702e-06
6.41298e-06
6.11774e-06
6.01453e-06
5.94271e-06
5.77944e-06
5.37553e-06
4.59527e-06
4.27228e-06
5.04479e-06
4.49175e-06
4.97469e-06
5.29618e-06
5.5267e-06
5.73243e-06
5.92482e-06
6.06753e-06
6.09689e-06
5.94045e-06
5.83964e-06
6.13829e-06
5.97491e-06
5.68388e-06
5.51213e-06
5.4329e-06
5.3241e-06
5.03443e-06
4.46781e-06
4.65235e-06
5.46281e-06
4.56522e-06
4.99375e-06
5.34896e-06
5.62394e-06
5.85808e-06
6.05334e-06
6.14036e-06
5.98301e-06
5.38053e-06
5.0353e-06
5.78173e-06
5.88329e-06
5.64288e-06
5.39683e-06
5.22339e-06
5.04218e-06
4.74191e-06
4.3011e-06
4.74182e-06
5.36028e-06
4.42684e-06
4.82574e-06
5.21145e-06
5.52386e-06
5.77167e-06
5.95558e-06
6.00716e-06
5.73001e-06
4.70493e-06
4.1449e-06
5.28115e-06
5.70412e-06
5.56416e-06
5.26784e-06
5.00426e-06
4.75362e-06
4.44541e-06
4.11233e-06
4.67433e-06
5.0039e-06
4.16201e-06
4.50429e-06
4.87599e-06
5.18711e-06
5.42241e-06
5.57535e-06
5.60306e-06
5.25543e-06
3.99932e-06
3.36174e-06
4.6283e-06
5.32553e-06
5.29745e-06
5.01849e-06
4.7385e-06
4.45669e-06
4.14907e-06
3.88477e-06
4.44003e-06
4.50275e-06
3.87787e-06
4.16399e-06
4.49097e-06
4.74787e-06
4.90523e-06
4.96161e-06
4.888e-06
4.4839e-06
3.43459e-06
2.9837e-06
3.96936e-06
4.73605e-06
4.83175e-06
4.68003e-06
4.45494e-06
4.18384e-06
3.88376e-06
3.63465e-06
4.013e-06
3.91298e-06
3.59982e-06
3.87635e-06
4.16395e-06
4.37179e-06
4.46692e-06
4.41195e-06
4.13792e-06
3.67703e-06
3.20021e-06
3.07259e-06
3.54272e-06
4.03804e-06
4.3025e-06
4.32314e-06
4.19258e-06
3.96082e-06
3.66384e-06
3.37132e-06
3.46976e-06
3.20369e-06
3.26306e-06
3.61142e-06
3.90037e-06
4.09175e-06
4.17426e-06
4.11313e-06
3.8337e-06
3.41915e-06
3.30057e-06
3.26765e-06
3.3548e-06
3.54123e-06
3.89593e-06
4.02567e-06
3.97107e-06
3.77228e-06
3.44861e-06
3.03618e-06
2.79465e-06
2.33003e-06
3.58114e-06
4.53844e-06
5.1666e-06
5.51887e-06
5.63627e-06
5.51741e-06
5.09181e-06
4.3407e-06
3.61531e-06
2.91879e-06
3.52247e-06
4.3612e-06
5.13103e-06
5.44071e-06
5.40228e-06
5.05533e-06
4.378e-06
3.31726e-06
1.9568e-06
3.43275e-06
4.8388e-06
5.92856e-06
6.65207e-06
7.21329e-06
7.99369e-06
9.31291e-06
1.08756e-05
1.23081e-05
1.33848e-05
1.39584e-05
1.38344e-05
1.28008e-05
1.1582e-05
1.03611e-05
9.31511e-06
8.31318e-06
7.19018e-06
5.81179e-06
4.19623e-06
4.9369e-06
4.69593e-06
5.22441e-06
5.53772e-06
5.77879e-06
6.02179e-06
6.30298e-06
6.60763e-06
6.88549e-06
7.06573e-06
7.12653e-06
7.34442e-06
7.08958e-06
6.64111e-06
6.26993e-06
6.0843e-06
5.96301e-06
5.71235e-06
5.10676e-06
5.195e-06
6.1752e-06
4.9723e-06
5.29618e-06
5.54908e-06
5.77003e-06
6.01044e-06
6.2715e-06
6.49546e-06
6.55297e-06
6.19724e-06
5.68778e-06
6.07375e-06
6.12074e-06
5.8564e-06
5.5974e-06
5.46924e-06
5.39989e-06
5.25002e-06
4.89947e-06
5.74007e-06
6.78532e-06
5.09904e-06
5.34896e-06
5.62594e-06
5.88521e-06
6.17053e-06
6.49409e-06
6.79099e-06
6.78328e-06
5.85526e-06
4.82095e-06
5.37335e-06
5.7302e-06
5.6393e-06
5.44098e-06
5.29083e-06
5.16609e-06
4.98942e-06
4.7371e-06
5.82584e-06
6.7095e-06
4.99031e-06
5.21145e-06
5.53122e-06
5.85157e-06
6.18632e-06
6.56356e-06
6.94319e-06
6.94358e-06
5.64898e-06
4.29637e-06
4.92467e-06
5.51173e-06
5.5312e-06
5.32794e-06
5.11248e-06
4.93205e-06
4.74335e-06
4.58047e-06
5.66793e-06
6.16564e-06
4.7065e-06
4.87599e-06
5.19486e-06
5.55294e-06
5.92945e-06
6.32732e-06
6.7042e-06
6.66416e-06
5.34522e-06
3.96001e-06
4.56416e-06
5.26291e-06
5.30409e-06
5.05937e-06
4.83384e-06
4.64776e-06
4.47934e-06
4.40097e-06
5.36267e-06
5.5183e-06
4.39861e-06
4.49097e-06
4.73389e-06
5.01992e-06
5.33569e-06
5.69494e-06
5.96038e-06
5.82748e-06
4.78676e-06
3.78074e-06
4.26506e-06
4.85482e-06
4.83731e-06
4.66723e-06
4.50729e-06
4.35355e-06
4.21011e-06
4.15183e-06
4.88017e-06
4.76384e-06
4.0853e-06
4.16395e-06
4.3395e-06
4.53001e-06
4.70523e-06
4.81958e-06
4.86525e-06
4.67047e-06
4.15256e-06
3.74095e-06
4.05751e-06
4.26446e-06
4.28968e-06
4.27784e-06
4.21296e-06
4.10266e-06
3.96399e-06
3.8531e-06
4.22631e-06
3.86202e-06
3.701e-06
3.90037e-06
4.09676e-06
4.2584e-06
4.37385e-06
4.3951e-06
4.25035e-06
4.01908e-06
3.8558e-06
3.7476e-06
3.91612e-06
3.83714e-06
3.95694e-06
4.05537e-06
4.04914e-06
3.94119e-06
3.73679e-06
3.4607e-06
3.40135e-06
2.75776e-06
4.13959e-06
5.1666e-06
5.82876e-06
6.18742e-06
6.28984e-06
6.13146e-06
5.64181e-06
4.91651e-06
4.12492e-06
3.27628e-06
3.80143e-06
4.68062e-06
5.51059e-06
5.94663e-06
5.98252e-06
5.65844e-06
4.95297e-06
3.82679e-06
2.36067e-06
3.74095e-06
5.34246e-06
6.53941e-06
7.21329e-06
7.42568e-06
7.76778e-06
8.80192e-06
1.04436e-05
1.25261e-05
1.4379e-05
1.54342e-05
1.54392e-05
1.44619e-05
1.31683e-05
1.18603e-05
1.05618e-05
9.3157e-06
8.03739e-06
6.50916e-06
4.67329e-06
5.57069e-06
5.00681e-06
5.46226e-06
5.77879e-06
6.04759e-06
6.33821e-06
6.73424e-06
7.15797e-06
7.64242e-06
8.09228e-06
8.21575e-06
8.27388e-06
7.97511e-06
7.30123e-06
6.6785e-06
6.2373e-06
5.99734e-06
5.81767e-06
5.40349e-06
5.94435e-06
7.06826e-06
5.32197e-06
5.5267e-06
5.77003e-06
6.0629e-06
6.44777e-06
6.93099e-06
7.50019e-06
8.0126e-06
7.9273e-06
6.83428e-06
6.54199e-06
6.51518e-06
6.16993e-06
5.77952e-06
5.50714e-06
5.3729e-06
5.28335e-06
5.13369e-06
6.60242e-06
7.8279e-06
5.51169e-06
5.62394e-06
5.88521e-06
6.25391e-06
6.80321e-06
7.55025e-06
8.44455e-06
9.18771e-06
8.49234e-06
6.1869e-06
5.64185e-06
5.85741e-06
5.75364e-06
5.52016e-06
5.32714e-06
5.19518e-06
5.08116e-06
5.00075e-06
6.68046e-06
7.76341e-06
5.4289e-06
5.52386e-06
5.85157e-06
6.32547e-06
7.02252e-06
8.03678e-06
9.28296e-06
1.01875e-05
8.91831e-06
5.94931e-06
5.24341e-06
5.60325e-06
5.60677e-06
5.41063e-06
5.20035e-06
5.03213e-06
4.90428e-06
4.87083e-06
6.36257e-06
7.04471e-06
5.11939e-06
5.18711e-06
5.55294e-06
6.11984e-06
6.90063e-06
8.01088e-06
9.46668e-06
1.03567e-05
8.80787e-06
5.71801e-06
5.03479e-06
5.45787e-06
5.44036e-06
5.17905e-06
4.93807e-06
4.78278e-06
4.69124e-06
4.72664e-06
5.94561e-06
6.21926e-06
4.76662e-06
4.74787e-06
5.01992e-06
5.52313e-06
6.30004e-06
7.33371e-06
8.59982e-06
9.28559e-06
7.77729e-06
5.30085e-06
4.8592e-06
5.20277e-06
5.0389e-06
4.75748e-06
4.58184e-06
4.48206e-06
4.4348e-06
4.50041e-06
5.40657e-06
5.32797e-06
4.41664e-06
4.37179e-06
4.53001e-06
4.84639e-06
5.33223e-06
6.03021e-06
6.82688e-06
7.17149e-06
6.11806e-06
4.73974e-06
4.68683e-06
4.72144e-06
4.48083e-06
4.31998e-06
4.25077e-06
4.20507e-06
4.17139e-06
4.18915e-06
4.70678e-06
4.30575e-06
3.99284e-06
4.09175e-06
4.2584e-06
4.47563e-06
4.74285e-06
5.01136e-06
5.20897e-06
5.22613e-06
4.74343e-06
4.26476e-06
4.47887e-06
4.28702e-06
4.13094e-06
4.11701e-06
4.10794e-06
4.04755e-06
3.92591e-06
3.7581e-06
3.81809e-06
3.08162e-06
4.48948e-06
5.51887e-06
6.18742e-06
6.56064e-06
6.68381e-06
6.53817e-06
6.05614e-06
5.41511e-06
4.59409e-06
3.64816e-06
3.93086e-06
4.87139e-06
5.60833e-06
6.141e-06
6.2498e-06
5.9686e-06
5.28396e-06
4.16617e-06
2.683e-06
4.00528e-06
5.81046e-06
7.2199e-06
7.99369e-06
7.76778e-06
7.06895e-06
7.56895e-06
9.23531e-06
1.13199e-05
1.36338e-05
1.57098e-05
1.63465e-05
1.56534e-05
1.43967e-05
1.30261e-05
1.17012e-05
1.0268e-05
8.76612e-06
7.08032e-06
5.04988e-06
6.05869e-06
5.24512e-06
5.66074e-06
6.02179e-06
6.33821e-06
6.54776e-06
7.02554e-06
7.98984e-06
8.69652e-06
9.32752e-06
1.00135e-05
9.81565e-06
9.10473e-06
8.02054e-06
7.09683e-06
6.4463e-06
6.02631e-06
5.81949e-06
5.56821e-06
6.52647e-06
7.70208e-06
5.60495e-06
5.73243e-06
6.01044e-06
6.44777e-06
7.0276e-06
7.73717e-06
8.89018e-06
1.01746e-05
1.0854e-05
9.9598e-06
8.11643e-06
7.25993e-06
6.60754e-06
6.01463e-06
5.5865e-06
5.34102e-06
5.25586e-06
5.26256e-06
7.22008e-06
8.52828e-06
5.84061e-06
5.85808e-06
6.17053e-06
6.80321e-06
7.84327e-06
9.1569e-06
1.07203e-05
1.28015e-05
1.38773e-05
1.05114e-05
7.1808e-06
6.36294e-06
6.01233e-06
5.64814e-06
5.3632e-06
5.18589e-06
5.10498e-06
5.16049e-06
7.21917e-06
8.42934e-06
5.75516e-06
5.77167e-06
6.18632e-06
7.02252e-06
8.50825e-06
1.06568e-05
1.30099e-05
1.55557e-05
1.61593e-05
1.09178e-05
6.84446e-06
6.0397e-06
5.81722e-06
5.52013e-06
5.2657e-06
5.07686e-06
4.97478e-06
5.03665e-06
6.70683e-06
7.56077e-06
5.38916e-06
5.42241e-06
5.92945e-06
6.90063e-06
8.57095e-06
1.13193e-05
1.47346e-05
1.75096e-05
1.68704e-05
1.05637e-05
6.58806e-06
5.92448e-06
5.70363e-06
5.34022e-06
5.04429e-06
4.85873e-06
4.78543e-06
4.87748e-06
6.1319e-06
6.51037e-06
4.95122e-06
4.90523e-06
5.33569e-06
6.30004e-06
7.88153e-06
1.04701e-05
1.43597e-05
1.71958e-05
1.53215e-05
9.27547e-06
6.18008e-06
5.75759e-06
5.40758e-06
4.94781e-06
4.6653e-06
4.54702e-06
4.52944e-06
4.63886e-06
5.50213e-06
5.5403e-06
4.55407e-06
4.46692e-06
4.70523e-06
5.33223e-06
6.50717e-06
8.42274e-06
1.13617e-05
1.36931e-05
1.15333e-05
7.29334e-06
5.64181e-06
5.3905e-06
4.86484e-06
4.46577e-06
4.29153e-06
4.2431e-06
4.25115e-06
4.32404e-06
4.83722e-06
4.50151e-06
4.11959e-06
4.17426e-06
4.37385e-06
4.74285e-06
5.35035e-06
6.24864e-06
7.53332e-06
8.6582e-06
7.25236e-06
5.36327e-06
5.04611e-06
4.90815e-06
4.47362e-06
4.22035e-06
4.14239e-06
4.08406e-06
4.00286e-06
3.89928e-06
4.00123e-06
3.28952e-06
4.65233e-06
5.63627e-06
6.28984e-06
6.68381e-06
6.86595e-06
6.81151e-06
6.5125e-06
6.01369e-06
5.1601e-06
4.09411e-06
3.93486e-06
4.93309e-06
5.63733e-06
6.07922e-06
6.25806e-06
6.03603e-06
5.40626e-06
4.34664e-06
2.90341e-06
4.27483e-06
6.31747e-06
8.16447e-06
9.31291e-06
8.80192e-06
7.56895e-06
6.57807e-06
7.98815e-06
1.03475e-05
1.23155e-05
1.38556e-05
1.55541e-05
1.60847e-05
1.53691e-05
1.38976e-05
1.25856e-05
1.11822e-05
9.43384e-06
7.56884e-06
5.35237e-06
6.4467e-06
5.46263e-06
5.86549e-06
6.30298e-06
6.73424e-06
7.02554e-06
7.1062e-06
8.93755e-06
1.08495e-05
1.12117e-05
1.14133e-05
1.14508e-05
1.02511e-05
8.64655e-06
7.39136e-06
6.59918e-06
6.09672e-06
5.79559e-06
5.66749e-06
6.96447e-06
8.07659e-06
5.85641e-06
5.92482e-06
6.2715e-06
6.93099e-06
7.73717e-06
8.33678e-06
1.03043e-05
1.33812e-05
1.4286e-05
1.35192e-05
1.09968e-05
8.42632e-06
7.05796e-06
6.21096e-06
5.64685e-06
5.33319e-06
5.23561e-06
5.35716e-06
7.6059e-06
8.83035e-06
6.09915e-06
6.05334e-06
6.49409e-06
7.55025e-06
9.1569e-06
1.06799e-05
1.25905e-05
1.63195e-05
1.91234e-05
1.74756e-05
1.09872e-05
7.43431e-06
6.3655e-06
5.78817e-06
5.38348e-06
5.15467e-06
5.10519e-06
5.27888e-06
7.42993e-06
8.59319e-06
5.96533e-06
5.95558e-06
6.56356e-06
8.03678e-06
1.06568e-05
1.37908e-05
1.62535e-05
1.99364e-05
2.44743e-05
2.0862e-05
1.12427e-05
7.15698e-06
6.1402e-06
5.64964e-06
5.28926e-06
5.05996e-06
4.97378e-06
5.12483e-06
6.68486e-06
7.52238e-06
5.50515e-06
5.57535e-06
6.32732e-06
8.01088e-06
1.13193e-05
1.63477e-05
2.0798e-05
2.44421e-05
2.86671e-05
2.20848e-05
1.12025e-05
7.05101e-06
6.05516e-06
5.51077e-06
5.09933e-06
4.85259e-06
4.74104e-06
4.83944e-06
5.87246e-06
6.28127e-06
4.93998e-06
4.96161e-06
5.69494e-06
7.33371e-06
1.04701e-05
1.63293e-05
2.35989e-05
2.82129e-05
2.98137e-05
1.98447e-05
1.00901e-05
6.78037e-06
5.86279e-06
5.17198e-06
4.73302e-06
4.5126e-06
4.43865e-06
4.47604e-06
5.08862e-06
5.32535e-06
4.46236e-06
4.41195e-06
4.81958e-06
6.03021e-06
8.42274e-06
1.2923e-05
2.09672e-05
2.72631e-05
2.50781e-05
1.47504e-05
8.17791e-06
6.28109e-06
5.41227e-06
4.67723e-06
4.31882e-06
4.17441e-06
4.13783e-06
4.15892e-06
4.5134e-06
4.40445e-06
4.04632e-06
4.11313e-06
4.3951e-06
5.01136e-06
6.24864e-06
8.50409e-06
1.32439e-05
1.88838e-05
1.52307e-05
9.03657e-06
6.16332e-06
5.63004e-06
4.93127e-06
4.39981e-06
4.13912e-06
4.01891e-06
3.91814e-06
3.80866e-06
3.87677e-06
3.35765e-06
4.6166e-06
5.51741e-06
6.13146e-06
6.53817e-06
6.81151e-06
7.01914e-06
7.24535e-06
8.36246e-06
7.24541e-06
5.08059e-06
4.06397e-06
4.82073e-06
5.54148e-06
5.88933e-06
6.0097e-06
5.8507e-06
5.29623e-06
4.32889e-06
2.98231e-06
4.5756e-06
6.90268e-06
9.38886e-06
1.08756e-05
1.04436e-05
9.23531e-06
7.98815e-06
7.81113e-06
9.86479e-06
1.17155e-05
1.31321e-05
1.4435e-05
1.6047e-05
1.58988e-05
1.44659e-05
1.32248e-05
1.19164e-05
1.01559e-05
8.01042e-06
5.59735e-06
6.78465e-06
5.68417e-06
6.12132e-06
6.60763e-06
7.15797e-06
7.98984e-06
8.93755e-06
1.0623e-05
1.35238e-05
1.41633e-05
1.30256e-05
1.20175e-05
1.07022e-05
8.89797e-06
7.45376e-06
6.64831e-06
6.15957e-06
5.85515e-06
5.75334e-06
7.28636e-06
8.21771e-06
6.08176e-06
6.06753e-06
6.49546e-06
7.50019e-06
8.89018e-06
1.03043e-05
1.22913e-05
1.56091e-05
1.74878e-05
1.59559e-05
1.31473e-05
9.57441e-06
7.32137e-06
6.23022e-06
5.61849e-06
5.3059e-06
5.25704e-06
5.46511e-06
7.78929e-06
8.70173e-06
6.26569e-06
6.14036e-06
6.79099e-06
8.44455e-06
1.07203e-05
1.25905e-05
1.41353e-05
1.73935e-05
2.15517e-05
2.12196e-05
1.54279e-05
9.00113e-06
6.63463e-06
5.81563e-06
5.32519e-06
5.0667e-06
5.08152e-06
5.39703e-06
7.32927e-06
8.15894e-06
6.02143e-06
6.00716e-06
6.94319e-06
9.28296e-06
1.30099e-05
1.62535e-05
1.73575e-05
1.95976e-05
2.61989e-05
2.7733e-05
1.72604e-05
8.95931e-06
6.47752e-06
5.69731e-06
5.23245e-06
4.93571e-06
4.87445e-06
5.13886e-06
6.31511e-06
6.79515e-06
5.41959e-06
5.60306e-06
6.7042e-06
9.46668e-06
1.47346e-05
2.0798e-05
2.311e-05
2.35935e-05
3.18262e-05
3.2709e-05
1.86166e-05
9.23188e-06
6.46463e-06
5.58957e-06
5.05913e-06
4.69934e-06
4.50799e-06
4.55261e-06
5.16413e-06
5.42009e-06
4.65171e-06
4.888e-06
5.96038e-06
8.59982e-06
1.43597e-05
2.35989e-05
3.04953e-05
3.0603e-05
3.78211e-05
3.48962e-05
1.83212e-05
9.02522e-06
6.33826e-06
5.33594e-06
4.7052e-06
4.34089e-06
4.092e-06
3.92593e-06
4.1595e-06
4.49834e-06
4.03914e-06
4.13792e-06
4.86525e-06
6.82688e-06
1.13617e-05
2.09672e-05
3.35718e-05
3.7916e-05
4.09429e-05
3.10715e-05
1.51399e-05
8.05291e-06
5.96883e-06
4.89576e-06
4.29983e-06
3.98351e-06
3.77282e-06
3.58619e-06
3.57542e-06
3.88042e-06
3.66937e-06
3.8337e-06
4.25035e-06
5.20897e-06
7.53332e-06
1.32439e-05
2.54981e-05
3.6721e-05
3.39433e-05
1.99788e-05
1.01145e-05
6.61191e-06
5.43287e-06
4.59441e-06
4.13816e-06
3.84412e-06
3.62748e-06
3.39634e-06
3.33292e-06
3.21547e-06
4.30213e-06
5.09181e-06
5.64181e-06
6.05614e-06
6.5125e-06
7.24535e-06
1.15668e-05
2.5044e-05
2.08293e-05
1.01403e-05
5.45572e-06
4.66693e-06
5.28942e-06
5.56632e-06
5.57064e-06
5.3498e-06
4.87465e-06
4.02966e-06
2.85632e-06
4.90755e-06
7.61982e-06
1.05272e-05
1.23081e-05
1.25261e-05
1.13199e-05
1.03475e-05
9.86479e-06
1.17717e-05
1.33757e-05
1.43749e-05
1.53247e-05
1.62169e-05
1.59605e-05
1.47394e-05
1.3652e-05
1.24909e-05
1.08032e-05
8.38616e-06
5.78713e-06
7.10434e-06
5.93195e-06
6.36465e-06
6.88549e-06
7.64242e-06
8.69652e-06
1.08495e-05
1.35238e-05
1.4587e-05
1.53347e-05
1.40901e-05
1.16539e-05
1.00954e-05
8.53951e-06
7.31603e-06
6.62385e-06
6.2271e-06
5.97083e-06
5.84045e-06
7.51629e-06
8.17556e-06
6.26273e-06
6.09689e-06
6.55297e-06
8.0126e-06
1.01746e-05
1.33812e-05
1.56091e-05
1.55516e-05
1.70491e-05
1.73483e-05
1.37921e-05
9.81739e-06
7.1283e-06
5.98698e-06
5.45862e-06
5.23459e-06
5.30113e-06
5.61147e-06
7.80998e-06
8.18125e-06
6.28547e-06
5.98301e-06
6.78328e-06
9.18771e-06
1.28015e-05
1.63195e-05
1.73935e-05
1.61976e-05
1.93378e-05
2.22029e-05
1.72573e-05
1.00641e-05
6.58879e-06
5.57032e-06
5.09212e-06
4.86507e-06
4.9916e-06
5.52516e-06
6.97125e-06
7.17314e-06
5.85438e-06
5.73001e-06
6.94358e-06
1.01875e-05
1.55557e-05
1.99364e-05
1.95976e-05
1.68621e-05
2.17283e-05
2.78522e-05
2.07747e-05
1.03344e-05
6.50287e-06
5.49515e-06
4.98669e-06
4.64294e-06
4.60566e-06
5.01196e-06
5.67395e-06
5.59239e-06
5.04052e-06
5.25543e-06
6.66416e-06
1.03567e-05
1.75096e-05
2.44421e-05
2.35935e-05
1.80345e-05
2.39971e-05
3.34764e-05
2.25961e-05
1.08076e-05
6.62309e-06
5.44069e-06
4.8379e-06
4.36073e-06
4.06042e-06
3.99645e-06
4.09344e-06
4.07986e-06
3.98128e-06
4.4839e-06
5.82748e-06
9.28559e-06
1.71958e-05
2.82129e-05
3.0603e-05
2.13446e-05
2.7184e-05
3.61016e-05
2.32461e-05
1.10334e-05
6.62084e-06
5.28093e-06
4.55925e-06
4.03061e-06
3.57353e-06
3.1392e-06
2.95545e-06
3.19499e-06
3.20417e-06
3.67703e-06
4.67047e-06
7.17149e-06
1.36931e-05
2.72631e-05
3.7916e-05
2.90621e-05
3.23472e-05
3.56525e-05
2.1225e-05
1.02216e-05
6.33223e-06
4.9917e-06
4.24515e-06
3.76938e-06
3.33765e-06
2.82415e-06
2.44536e-06
2.92997e-06
3.01034e-06
3.41915e-06
4.01908e-06
5.22613e-06
8.6582e-06
1.88838e-05
3.6721e-05
3.9224e-05
3.85962e-05
3.16425e-05
1.67397e-05
8.43078e-06
5.75444e-06
4.7052e-06
4.14807e-06
3.73163e-06
3.32276e-06
2.85995e-06
2.59883e-06
2.84954e-06
3.66698e-06
4.3407e-06
4.91651e-06
5.41511e-06
6.01369e-06
8.36246e-06
2.5044e-05
5.42085e-05
5.24663e-05
3.08501e-05
1.23299e-05
5.70364e-06
4.89551e-06
5.06132e-06
4.99181e-06
4.70209e-06
4.19393e-06
3.4584e-06
2.58865e-06
5.22494e-06
8.31662e-06
1.14339e-05
1.33848e-05
1.4379e-05
1.36338e-05
1.23155e-05
1.17155e-05
1.33757e-05
1.53667e-05
1.61096e-05
1.67926e-05
1.6574e-05
1.58715e-05
1.48077e-05
1.39373e-05
1.29346e-05
1.13299e-05
8.6814e-06
5.91692e-06
7.38063e-06
6.15872e-06
6.5562e-06
7.06573e-06
8.09228e-06
9.32752e-06
1.12117e-05
1.41633e-05
1.53347e-05
1.46122e-05
1.32137e-05
1.11669e-05
9.37693e-06
8.0137e-06
7.10336e-06
6.59167e-06
6.30932e-06
6.11683e-06
5.9262e-06
7.66382e-06
8.03235e-06
6.37772e-06
5.94045e-06
6.19724e-06
7.9273e-06
1.0854e-05
1.4286e-05
1.74878e-05
1.70491e-05
1.63959e-05
1.70106e-05
1.35031e-05
9.05015e-06
6.42858e-06
5.52621e-06
5.17996e-06
5.10392e-06
5.32958e-06
5.77552e-06
7.71216e-06
7.48738e-06
6.17814e-06
5.38053e-06
5.85526e-06
8.49234e-06
1.38773e-05
1.91234e-05
2.15517e-05
1.93378e-05
1.99402e-05
2.27513e-05
1.73183e-05
9.68407e-06
5.93457e-06
4.97094e-06
4.61251e-06
4.5009e-06
4.79736e-06
5.56244e-06
6.47874e-06
6.0647e-06
5.35917e-06
4.70493e-06
5.64898e-06
8.91831e-06
1.61593e-05
2.44743e-05
2.61989e-05
2.17283e-05
2.33836e-05
2.82318e-05
2.09847e-05
1.01944e-05
5.91625e-06
4.88622e-06
4.41364e-06
4.10487e-06
4.12954e-06
4.62767e-06
4.88715e-06
4.46943e-06
4.05924e-06
3.99932e-06
5.34522e-06
8.80787e-06
1.68704e-05
2.86671e-05
3.18262e-05
2.39971e-05
2.55169e-05
3.26069e-05
2.29602e-05
1.04615e-05
6.08804e-06
4.91361e-06
4.31295e-06
3.801e-06
3.43268e-06
3.24528e-06
2.80687e-06
2.6209e-06
2.84131e-06
3.43459e-06
4.78676e-06
7.77729e-06
1.53215e-05
2.98137e-05
3.78211e-05
2.7184e-05
2.66753e-05
3.41025e-05
2.28756e-05
1.0768e-05
6.18991e-06
4.89266e-06
4.23657e-06
3.67574e-06
3.10629e-06
2.52758e-06
2.08152e-06
2.05522e-06
2.46476e-06
3.20021e-06
4.15256e-06
6.11806e-06
1.15333e-05
2.50781e-05
4.09429e-05
3.23472e-05
2.92824e-05
3.27089e-05
2.06812e-05
1.00678e-05
5.99632e-06
4.77717e-06
4.17011e-06
3.7058e-06
3.18919e-06
2.51217e-06
2.06427e-06
2.27711e-06
2.74439e-06
3.30057e-06
3.8558e-06
4.74343e-06
7.25236e-06
1.52307e-05
3.39433e-05
3.85962e-05
3.41214e-05
2.93051e-05
1.65608e-05
8.40827e-06
5.44361e-06
4.55932e-06
4.15073e-06
3.80554e-06
3.37473e-06
2.78387e-06
2.16839e-06
2.45528e-06
3.05253e-06
3.61531e-06
4.12492e-06
4.59409e-06
5.1601e-06
7.24541e-06
2.08293e-05
5.24663e-05
5.16411e-05
3.27463e-05
1.40696e-05
6.18238e-06
4.39918e-06
4.35339e-06
4.24301e-06
3.95985e-06
3.5185e-06
2.93198e-06
2.26955e-06
5.42867e-06
8.7016e-06
1.19281e-05
1.39584e-05
1.54342e-05
1.57098e-05
1.38556e-05
1.31321e-05
1.43749e-05
1.61096e-05
1.6837e-05
1.76591e-05
1.69008e-05
1.59034e-05
1.49577e-05
1.41912e-05
1.32485e-05
1.16617e-05
8.89227e-06
5.97626e-06
7.56556e-06
6.27826e-06
6.67443e-06
7.12653e-06
8.21575e-06
1.00135e-05
1.14133e-05
1.30256e-05
1.40901e-05
1.32137e-05
1.16148e-05
1.05971e-05
8.91804e-06
7.75902e-06
7.03602e-06
6.62096e-06
6.3862e-06
6.22558e-06
6.0109e-06
7.72626e-06
7.97485e-06
6.44018e-06
5.83964e-06
5.68778e-06
6.83428e-06
9.9598e-06
1.35192e-05
1.59559e-05
1.73483e-05
1.70106e-05
1.53132e-05
1.15378e-05
7.42471e-06
5.67118e-06
5.20256e-06
5.01807e-06
5.04931e-06
5.35931e-06
5.86454e-06
7.61551e-06
7.12006e-06
6.17508e-06
5.0353e-06
4.82095e-06
6.1869e-06
1.05114e-05
1.74756e-05
2.12196e-05
2.22029e-05
2.27513e-05
2.13063e-05
1.40688e-05
7.19865e-06
4.89788e-06
4.45194e-06
4.2813e-06
4.30964e-06
4.70952e-06
5.52902e-06
6.17328e-06
5.58855e-06
5.11248e-06
4.1449e-06
4.29637e-06
5.94931e-06
1.09178e-05
2.0862e-05
2.7733e-05
2.78522e-05
2.82318e-05
2.72113e-05
1.66908e-05
7.51182e-06
4.81742e-06
4.26848e-06
3.9727e-06
3.80882e-06
3.89656e-06
4.27578e-06
3.86004e-06
3.40537e-06
3.55454e-06
3.36174e-06
3.96001e-06
5.71801e-06
1.05637e-05
2.20848e-05
3.2709e-05
3.34764e-05
3.26069e-05
3.13354e-05
1.79088e-05
7.80743e-06
4.95534e-06
4.28259e-06
3.86479e-06
3.49757e-06
3.18366e-06
2.88065e-06
2.30324e-06
2.13568e-06
2.48711e-06
2.9837e-06
3.78074e-06
5.30085e-06
9.27547e-06
1.98447e-05
3.48962e-05
3.61016e-05
3.41025e-05
3.08378e-05
1.75449e-05
8.09104e-06
5.09585e-06
4.34007e-06
3.89103e-06
3.46413e-06
2.98568e-06
2.41631e-06
2.09316e-06
2.01e-06
2.41114e-06
3.07259e-06
3.74095e-06
4.73974e-06
7.29334e-06
1.47504e-05
3.10715e-05
3.56525e-05
3.27089e-05
2.73838e-05
1.54328e-05
7.63587e-06
5.02571e-06
4.3497e-06
3.97711e-06
3.60539e-06
3.12582e-06
2.4904e-06
2.07058e-06
2.05854e-06
2.67811e-06
3.26765e-06
3.7476e-06
4.26476e-06
5.36327e-06
9.03657e-06
1.99788e-05
3.16425e-05
2.93051e-05
2.15674e-05
1.20215e-05
6.4793e-06
4.60689e-06
4.16442e-06
3.9518e-06
3.68944e-06
3.2968e-06
2.69675e-06
2.00914e-06
2.10167e-06
2.52407e-06
2.91879e-06
3.27628e-06
3.64816e-06
4.09411e-06
5.08059e-06
1.01403e-05
3.08501e-05
3.27463e-05
1.97074e-05
9.57989e-06
4.82856e-06
3.61864e-06
3.50008e-06
3.40246e-06
3.19716e-06
2.88332e-06
2.46006e-06
1.95448e-06
5.41651e-06
8.36929e-06
1.15698e-05
1.38344e-05
1.54392e-05
1.63465e-05
1.55541e-05
1.4435e-05
1.53247e-05
1.67926e-05
1.76591e-05
1.76682e-05
1.72814e-05
1.63649e-05
1.53185e-05
1.42874e-05
1.30697e-05
1.12684e-05
8.66634e-06
5.88461e-06
7.59051e-06
6.1458e-06
6.702e-06
7.34442e-06
8.27388e-06
9.81565e-06
1.14508e-05
1.20175e-05
1.16539e-05
1.11669e-05
1.05971e-05
9.59231e-06
8.76986e-06
8.13637e-06
7.39239e-06
6.85139e-06
6.49407e-06
6.2299e-06
6.03061e-06
7.65026e-06
8.20105e-06
6.3575e-06
6.13829e-06
6.07375e-06
6.54199e-06
8.11643e-06
1.09968e-05
1.31473e-05
1.37921e-05
1.35031e-05
1.15378e-05
8.16812e-06
6.3575e-06
6.04977e-06
5.73218e-06
5.45837e-06
5.38824e-06
5.53708e-06
5.80702e-06
7.8706e-06
7.68208e-06
6.4993e-06
5.78173e-06
5.37335e-06
5.64185e-06
7.1808e-06
1.09872e-05
1.54279e-05
1.72573e-05
1.73183e-05
1.40688e-05
8.07951e-06
5.39279e-06
5.19538e-06
5.08453e-06
4.91968e-06
4.93585e-06
5.26157e-06
5.87001e-06
6.98687e-06
6.48747e-06
6.14834e-06
5.28115e-06
4.92467e-06
5.24341e-06
6.84446e-06
1.12427e-05
1.72604e-05
2.07747e-05
2.09847e-05
1.66908e-05
8.60382e-06
5.25326e-06
4.98996e-06
4.91619e-06
4.72031e-06
4.65001e-06
4.8709e-06
5.43862e-06
5.58614e-06
5.04916e-06
5.1665e-06
4.6283e-06
4.56416e-06
5.03479e-06
6.58806e-06
1.12025e-05
1.86166e-05
2.25961e-05
2.29602e-05
1.79088e-05
9.29238e-06
5.44312e-06
5.01499e-06
4.88265e-06
4.58392e-06
4.33974e-06
4.26431e-06
4.37563e-06
3.99838e-06
3.65579e-06
3.96076e-06
3.96936e-06
4.26506e-06
4.8592e-06
6.18008e-06
1.00901e-05
1.83212e-05
2.32461e-05
2.28756e-05
1.75449e-05
9.49953e-06
5.65056e-06
5.08359e-06
4.84831e-06
4.44406e-06
4.0501e-06
3.69982e-06
3.38553e-06
2.73205e-06
2.79493e-06
3.15803e-06
3.54272e-06
4.05751e-06
4.68683e-06
5.64181e-06
8.17791e-06
1.51399e-05
2.1225e-05
2.06812e-05
1.54328e-05
8.76946e-06
5.56227e-06
5.05485e-06
4.74424e-06
4.28947e-06
3.84067e-06
3.37548e-06
2.8482e-06
2.15873e-06
2.49945e-06
2.82047e-06
3.3548e-06
3.91612e-06
4.47887e-06
5.04611e-06
6.16332e-06
1.01145e-05
1.67397e-05
1.65608e-05
1.20215e-05
7.2767e-06
5.00599e-06
4.73269e-06
4.51173e-06
4.15163e-06
3.73567e-06
3.25937e-06
2.72725e-06
2.35146e-06
2.53251e-06
3.09831e-06
3.52247e-06
3.80143e-06
3.93086e-06
3.93486e-06
4.06397e-06
5.45572e-06
1.23299e-05
1.40696e-05
9.57989e-06
5.40314e-06
3.56278e-06
3.664e-06
3.95088e-06
3.98122e-06
3.81641e-06
3.47533e-06
2.97307e-06
2.31933e-06
5.26176e-06
7.89783e-06
1.05646e-05
1.28008e-05
1.44619e-05
1.56534e-05
1.60847e-05
1.6047e-05
1.62169e-05
1.6574e-05
1.69008e-05
1.72814e-05
1.71495e-05
1.60243e-05
1.48659e-05
1.37191e-05
1.23842e-05
1.05243e-05
8.26345e-06
5.68413e-06
7.32248e-06
5.96501e-06
6.41298e-06
7.08958e-06
7.97511e-06
9.10473e-06
1.02511e-05
1.07022e-05
1.00954e-05
9.37693e-06
8.91804e-06
8.76986e-06
8.78379e-06
8.01482e-06
7.23795e-06
6.68672e-06
6.31989e-06
6.06091e-06
5.94622e-06
7.37577e-06
8.1312e-06
5.99359e-06
5.97491e-06
6.12074e-06
6.51518e-06
7.25993e-06
8.42632e-06
9.57441e-06
9.81739e-06
9.05015e-06
7.42471e-06
6.3575e-06
6.60627e-06
6.37122e-06
5.87375e-06
5.51598e-06
5.36688e-06
5.38578e-06
5.5573e-06
7.80275e-06
7.95481e-06
6.16222e-06
5.88329e-06
5.7302e-06
5.85741e-06