/*--------------------------------*- C++ -*----------------------------------*\
  =========                 |
  \\      /  F ield         | OpenFOAM: The Open Source CFD Toolbox
   \\    /   O peration     | Website:  https://openfoam.org
    \\  /    A nd           | Version:  8
     \\/     M anipulation  |
\*---------------------------------------------------------------------------*/
FoamFile
{
    version     2.0;
    format      ascii;
    class       volScalarField;
    location    "200";
    object      k;
}
// * * * * * * * * * * * * * * * * * * * * * * * * * * * * * * * * * * * * * //

dimensions      [0 2 -2 0 0 0 0];

internalField   nonuniform List<scalar> 
4000
(
0.000107226
0.00012865
0.000147989
0.000161172
0.000170815
0.000178972
0.000187199
0.000196229
0.000205974
0.000215002
0.00022064
0.000220304
0.000215964
0.000209896
0.000202279
0.000192314
0.000178971
0.000161097
0.000137068
0.000113432
0.000116985
0.000152235
0.000182697
0.000205773
0.000223059
0.000235952
0.000246036
0.00025478
0.000263022
0.000270112
0.000274912
0.000275797
0.000269258
0.000259882
0.000248019
0.000232788
0.000212835
0.000187224
0.000154777
0.000118274
0.00012506
0.000170827
0.000209444
0.000239704
0.000262273
0.000277658
0.00028647
0.000289663
0.000288533
0.000285192
0.000284141
0.000290076
0.000288682
0.00028181
0.000270381
0.000253982
0.000231422
0.000201833
0.000164169
0.000120925
0.000126598
0.000177802
0.00022141
0.000255942
0.000281548
0.000298025
0.000304804
0.000301429
0.000288683
0.000271628
0.000262647
0.000277239
0.000284324
0.000283216
0.000274965
0.000259714
0.000236669
0.000204928
0.000165105
0.000120723
0.000123317
0.000174287
0.00021893
0.000254515
0.000280645
0.000296481
0.000300122
0.000289393
0.000264617
0.000235859
0.000223014
0.000247471
0.000263205
0.000269123
0.00026578
0.000252837
0.000230631
0.000199168
0.000159597
0.00011775
0.000119176
0.000166211
0.000209054
0.000240535
0.000263342
0.000276214
0.000275177
0.000256569
0.00022413
0.00019192
0.00015866
0.000208764
0.000237643
0.000251823
0.000252409
0.000241371
0.000220533
0.000190362
0.000152299
0.000113028
0.000114506
0.000155844
0.000194778
0.000223339
0.000242096
0.000249692
0.000243709
0.00022048
0.000181647
0.000134424
0.000118594
0.000168498
0.00020869
0.000231671
0.000236227
0.000227195
0.00020802
0.000179569
0.000143646
0.000107339
0.000107641
0.000143221
0.000177315
0.000202432
0.000218251
0.000224064
0.000218186
0.000194908
0.000155032
0.000115988
0.000114385
0.000141132
0.00018395
0.000211255
0.000216533
0.000209199
0.000192129
0.000166162
0.000132968
9.91726e-05
9.7108e-05
0.000126924
0.000155167
0.000175973
0.000189294
0.000195013
0.000192192
0.000176655
0.000146641
0.000124241
0.000115949
0.000131597
0.000167188
0.000187495
0.000191255
0.000185044
0.00017082
0.000148869
0.000119671
8.84894e-05
8.66765e-05
0.000104974
0.000125536
0.000140578
0.000151422
0.000158171
0.000160357
0.000155831
0.000143867
0.000130416
0.000117441
0.000132847
0.000148221
0.000157111
0.000156739
0.000150684
0.000140116
0.000124084
0.00010205
8.24741e-05
0.00012865
0.000159443
0.000184828
0.000202908
0.000216972
0.000229769
0.000243331
0.000258652
0.000277039
0.000293995
0.000303047
0.000295223
0.000283575
0.000271465
0.000259216
0.000245045
0.000227377
0.000204616
0.000175051
0.000141929
0.000152235
0.000245287
0.000302589
0.000344346
0.000376991
0.000403868
0.000427263
0.000448465
0.000466705
0.000478366
0.000484315
0.00047889
0.000455516
0.000432075
0.000407547
0.000379999
0.000345328
0.000300356
0.000241598
0.000154348
0.000170827
0.000298936
0.000372287
0.000425325
0.000464929
0.000494218
0.000514821
0.000527014
0.000529405
0.000524055
0.000522212
0.000530131
0.000515208
0.000493232
0.000468098
0.000438286
0.000398927
0.000345994
0.000274909
0.000161895
0.000177802
0.000321873
0.00040344
0.000462493
0.000505572
0.000534713
0.000550198
0.000550324
0.000531324
0.00049893
0.00048518
0.000524299
0.000527464
0.000512389
0.000489165
0.00045844
0.000416104
0.000359683
0.000284853
0.000164636
0.000174287
0.000318676
0.000403011
0.000463865
0.000507451
0.000534406
0.000543401
0.00053037
0.000489197
0.000421151
0.0003868
0.000469644
0.000504256
0.000503102
0.000483204
0.000452582
0.000410139
0.000353783
0.00027937
0.000162871
0.000166211
0.000296388
0.000377668
0.000436988
0.000478507
0.000500891
0.000502052
0.000475176
0.000410406
0.000310721
0.000269236
0.000377436
0.000440016
0.000463097
0.000455051
0.000429232
0.0003893
0.000335009
0.000263112
0.000155895
0.000155844
0.000268557
0.00034138
0.000393372
0.000427889
0.000443473
0.00043631
0.000395244
0.000318391
0.00022357
0.000197247
0.000296392
0.000369307
0.000408795
0.000411454
0.00039345
0.000359286
0.000309935
0.000243095
0.000145387
0.000143221
0.000239559
0.000301851
0.000344267
0.000370146
0.00037927
0.000368424
0.000329456
0.00026235
0.000193578
0.000179613
0.000244272
0.000309037
0.000349498
0.000360202
0.00035052
0.000324133
0.000281717
0.000221323
0.000132261
0.000126924
0.000206117
0.000255831
0.000287069
0.00030442
0.000309608
0.000301366
0.000274012
0.000229218
0.000190435
0.000174075
0.000203961
0.000252533
0.000286593
0.000299283
0.000295886
0.000278296
0.000245401
0.00019411
0.000115199
0.000104974
0.000141112
0.000167421
0.000184481
0.000194747
0.000199415
0.000198392
0.000189322
0.000170326
0.000150894
0.000132789
0.000151941
0.000175653
0.000192104
0.00019665
0.000193287
0.000183061
0.000164981
0.0001346
9.44543e-05
0.000147989
0.000184828
0.000212939
0.000232458
0.000248437
0.000265887
0.000289157
0.000318216
0.000344042
0.000363859
0.000374391
0.000366929
0.000344929
0.000321172
0.000303306
0.000285402
0.000265076
0.00023991
0.000207091
0.000167244
0.000182697
0.000302589
0.000371358
0.000418629
0.000454822
0.000485882
0.000512461
0.000531948
0.00054604
0.00055371
0.00055861
0.000564727
0.000549514
0.000525963
0.000495941
0.000464221
0.000425201
0.000372838
0.000300221
0.000187831
0.000209444
0.000372287
0.000458611
0.000516029
0.000555926
0.000583987
0.000601245
0.000605025
0.000594236
0.000567947
0.000553686
0.000587354
0.000595262
0.000583582
0.000560804
0.000531328
0.000490387
0.000431276
0.000345708
0.000198857
0.00022141
0.00040344
0.000498466
0.000561358
0.000602964
0.000627938
0.000637268
0.000627347
0.000591516
0.000522316
0.000483443
0.000552991
0.000592813
0.000598727
0.000583364
0.00055506
0.000512195
0.000449944
0.000360558
0.000201562
0.00021893
0.000403011
0.000500033
0.000565134
0.000607938
0.00063108
0.000635101
0.000615591
0.000561223
0.000451643
0.000390772
0.000489185
0.000560377
0.000584889
0.000576226
0.000547945
0.000504761
0.00044342
0.000355284
0.000199707
0.000209054
0.000377668
0.000470469
0.00053369
0.00057622
0.000598195
0.000599135
0.000575096
0.00050948
0.000376516
0.000307809
0.000415886
0.000506191
0.000543615
0.000541665
0.000518062
0.00047794
0.000419704
0.000335543
0.000192985
0.000194778
0.00034138
0.000425324
0.000481036
0.000516601
0.000532854
0.000529579
0.000502027
0.000435072
0.000315765
0.000257255
0.000351956
0.000444149
0.00048381
0.000489855
0.000474122
0.000440163
0.000387194
0.000308492
0.000180366
0.000177315
0.000301851
0.00037491
0.000420882
0.000447561
0.000456836
0.0004467
0.0004119
0.000354846
0.000276384
0.000235461
0.000303325
0.00037448
0.000414515
0.000428873
0.000422071
0.000396281
0.000350309
0.000278334
0.000163652
0.000155167
0.000255831
0.000315215
0.000349868
0.000367796
0.000372461
0.000363158
0.00033544
0.000292273
0.000243499
0.000213091
0.00025127
0.000300973
0.000338184
0.000355506
0.000355476
0.000338681
0.000302464
0.000240839
0.000141634
0.000125536
0.000167421
0.000196169
0.000213896
0.000223485
0.000226604
0.000223389
0.000211791
0.00019066
0.000168995
0.000146404
0.000165404
0.000190715
0.000212808
0.000221431
0.000220471
0.000210967
0.000191663
0.00015915
0.000111643
0.000161172
0.000202908
0.000232458
0.000250955
0.000264962
0.000284363
0.000315404
0.00035102
0.000382139
0.000404621
0.000416157
0.000413843
0.000392572
0.000366782
0.000340173
0.00031675
0.000293475
0.000266277
0.000230951
0.000185854
0.000205773
0.000344346
0.000418629
0.000465468
0.000497518
0.000525241
0.000551274
0.000572718
0.000589396
0.000597801
0.000601031
0.000619845
0.000611761
0.000584843
0.000553163
0.000518952
0.00047795
0.000422854
0.000343055
0.000214114
0.000239704
0.000425325
0.000516029
0.000570881
0.000605222
0.000628059
0.000643385
0.000649783
0.000640394
0.000602809
0.000565453
0.000606598
0.000632657
0.000629182
0.000611413
0.000584804
0.000545986
0.000487005
0.000395398
0.000228852
0.000255942
0.000462493
0.000561358
0.000621001
0.000657051
0.000677996
0.000687989
0.000686591
0.000658733
0.000572545
0.00049241
0.000551547
0.000612487
0.000634546
0.000630875
0.000609092
0.000570259
0.000509241
0.000413674
0.000231181
0.000254515
0.000463865
0.000565134
0.000628768
0.00066866
0.000690644
0.00069895
0.000693996
0.000655127
0.00053721
0.000427014
0.000494347
0.000581019
0.000621482
0.000624653
0.00060274
0.000563189
0.000502983
0.000409265
0.000227104
0.000240535
0.000436988
0.00053369
0.000598311
0.000642667
0.000669256
0.000679064
0.000669617
0.000622327
0.000495249
0.000373162
0.000440653
0.000540902
0.000587699
0.00058971
0.00056971
0.000533096
0.000476635
0.000388336
0.000218928
0.000223339
0.000393372
0.000481036
0.000538579
0.000579161
0.000606636
0.000620351
0.000608153
0.000555016
0.000437245
0.000329093
0.000391476
0.000490142
0.000529172
0.000533723
0.000520241
0.000489475
0.000438248
0.000355669
0.000205622
0.000202432
0.000344267
0.000420882
0.000468419
0.000499085
0.000516554
0.000519049
0.000505138
0.000455396
0.000365622
0.000289409
0.000344104
0.00042015
0.000453531
0.000466463
0.00046152
0.000438292
0.000393458
0.000317759
0.000186818
0.000175973
0.000287069
0.000349868
0.000386187
0.000406589
0.000415506
0.000411757
0.000390871
0.000349395
0.000290786
0.00024419
0.000283739
0.000335318
0.000368248
0.000385519
0.000387111
0.000371791
0.000335632
0.000270623
0.000161635
0.000140578
0.000184481
0.000213896
0.000231774
0.000241131
0.000243725
0.000239577
0.000226667
0.000207247
0.000184658
0.00015836
0.000173888
0.000199891
0.000222992
0.000234836
0.000235914
0.000227385
0.000208074
0.000175103
0.000126668
0.000170815
0.000216972
0.000248437
0.000264962
0.000269602
0.000278173
0.000303426
0.000340621
0.000386011
0.000424214
0.000445504
0.000445652
0.000426295
0.000400027
0.000372686
0.000344675
0.000316869
0.000287018
0.000249249
0.000199814
0.000223059
0.000376991
0.000454822
0.000497518
0.000515275
0.000524418
0.000547647
0.000582632
0.000616217
0.000645566
0.000658188
0.000673191
0.000668233
0.000634463
0.000594439
0.000555875
0.000514217
0.000458644
0.000375539
0.000234333
0.000262273
0.000464929
0.000555926
0.000605222
0.000631601
0.000647213
0.000664083
0.000690155
0.000710978
0.000694252
0.000631966
0.000636632
0.000663481
0.000660898
0.000641267
0.000614652
0.000578478
0.000522589
0.000430679
0.000251286
0.000281548
0.000505572
0.000602964
0.000657051
0.000690173
0.000715261
0.000739329
0.000766013
0.000780711
0.000715134
0.000575731
0.00056808
0.000624756
0.00065218
0.000652662
0.00063638
0.000602297
0.000545136
0.000449626
0.000253279
0.000280645
0.000507451
0.000607938
0.00066866
0.000709953
0.000743478
0.000778073
0.000811588
0.000818679
0.000715673
0.000532425
0.000515071
0.000591856
0.000637678
0.000647761
0.0006323
0.000596464
0.00053905
0.000444963
0.000245284
0.000263342
0.000478507
0.00057622
0.000642667
0.000694661
0.000736913
0.000776503
0.000813365
0.000809428
0.000686391
0.000489305
0.000471396
0.000560845
0.000611592
0.00061856
0.000599737
0.000565391
0.000511321
0.000421394
0.0002345
0.000242096
0.000427889
0.000516601
0.000579161
0.00063449
0.000687178
0.000729591
0.000757378
0.000738258
0.000610315
0.000433295
0.000426101
0.000519187
0.000561221
0.000561871
0.000546817
0.000517766
0.000468781
0.000385288
0.000220154
0.000218251
0.000370146
0.000447561
0.000499085
0.000541886
0.000582241
0.000620879
0.000637968
0.000605153
0.000492262
0.00036145
0.000372695
0.000453949
0.000484514
0.000489288
0.000482673
0.000460824
0.00041799
0.000342063
0.000200773
0.000189294
0.00030442
0.000367796
0.000406589
0.000433639
0.000454482
0.000467778
0.000467807
0.000432216
0.000353766
0.000279697
0.000302612
0.000359297
0.000390225
0.000401525
0.000402294
0.000387757
0.000352829
0.000288057
0.000174662
0.000151422
0.000194747
0.000223485
0.000241131
0.000250661
0.000253726
0.000249978
0.000238034
0.000221538
0.000198907
0.000170772
0.000177473
0.000205161
0.000225484
0.000239747
0.000242782
0.000235559
0.000217217
0.000185327
0.000138037
0.000178972
0.000229769
0.000265887
0.000284363
0.000278173
0.000260962
0.000274706
0.000315205
0.000361669
0.000409079
0.000449973
0.000462639
0.000449468
0.000425015
0.000397142
0.000369395
0.000338342
0.00030431
0.00026378
0.000210526
0.000235952
0.000403868
0.000485882
0.000525241
0.000524418
0.000492029
0.000484807
0.000540053
0.000614967
0.000681487
0.0007326
0.000741161
0.000723327
0.00067614
0.000625354
0.000579977
0.000537219
0.000483952
0.000399991
0.000249469
0.000277658
0.000494218
0.000583987
0.000628059
0.000647213
0.000646888
0.000645609
0.000689526
0.000772808
0.000820748
0.000783368
0.000712226
0.000699001
0.000685252
0.000659201
0.000628542
0.000593654
0.000542877
0.000454464
0.00026674
0.000298025
0.000534713
0.000627938
0.000677996
0.000715261
0.000751342
0.000783739
0.00082888
0.000917921
0.000953792
0.000790835
0.000641697
0.000641444
0.000661166
0.000659937
0.000643519
0.000613564
0.000562032
0.000471058
0.000266663
0.000296481
0.000534406
0.00063108
0.000690644
0.000743478
0.000809034
0.000886329
0.000956949
0.00103901
0.0010337
0.00078005
0.000590351
0.000601312
0.000641588
0.000652955
0.000640903
0.000608065
0.000553404
0.000462855
0.000253961
0.000276214
0.000500891
0.000598195
0.000669256
0.000736913
0.000817177
0.000925736
0.00103685
0.00110838
0.00103795
0.000732803
0.000544102
0.000571109
0.0006202
0.000629875
0.000612864
0.00057743
0.000523155
0.000433483
0.000239252
0.000249692
0.000443473
0.000532854
0.000606636
0.000687178
0.000774727
0.000882565
0.00101244
0.00107392
0.000944781
0.000638737
0.000486833
0.000533393
0.000579546
0.000579214
0.00055899
0.000527826
0.000478657
0.000394865
0.000222643
0.000224064
0.00037927
0.000456836
0.000516554
0.000582241
0.000664755
0.000758494
0.000858388
0.000897126
0.000748413
0.000503512
0.000412788
0.000472163
0.000506606
0.000504849
0.000491121
0.000467569
0.000425259
0.000350025
0.000204438
0.000195013
0.000309608
0.000372461
0.000415506
0.000454482
0.000498753
0.000551511
0.000601923
0.000607687
0.000489837
0.000347734
0.00031895
0.000375333
0.000403306
0.000409859
0.000406308
0.000391139
0.000357246
0.000294255
0.000180228
0.000158171
0.000199415
0.000226604
0.000243725
0.000253726
0.00025828
0.000257019
0.000251157
0.000241289
0.000218685
0.000186079
0.000177869
0.000206748
0.00022624
0.000237931
0.000242873
0.00023727
0.000220535
0.000190653
0.000145548
0.000187199
0.000243331
0.000289157
0.000315404
0.000303426
0.000274706
0.000250902
0.000287076
0.000341313
0.000382705
0.000413371
0.000446172
0.000457366
0.000444309
0.000414999
0.000388055
0.000358374
0.000319762
0.000275922
0.000218957
0.000246036
0.000427263
0.000512461
0.000551274
0.000547647
0.000484807
0.000415099
0.000472059
0.000605095
0.000693392
0.000766035
0.000798251
0.000764842
0.000702575
0.000641779
0.000592886
0.000549878
0.000501898
0.000418728
0.000260579
0.00028647
0.000514821
0.000601245
0.000643385
0.000664083
0.000645609
0.000588636
0.000625463
0.000794253
0.000911284
0.000925766
0.000836197
0.000741268
0.000696973
0.000662827
0.000628971
0.000594788
0.000551439
0.000469735
0.00027615
0.000304804
0.000550198
0.000637268
0.000687989
0.000739329
0.000783739
0.000784655
0.000801423
0.000961444
0.00112377
0.00107409
0.000811678
0.000674582
0.000659845
0.000653511
0.000634977
0.000606217
0.000562368
0.000480383
0.0002717
0.000300122
0.000543401
0.000635101
0.00069895
0.000778073
0.000886329
0.000977904
0.00101419
0.00113807
0.00131954
0.00117718
0.000783427
0.000629986
0.000633426
0.000642524
0.00062993
0.000598261
0.00054605
0.000462299
0.000253216
0.000275177
0.000502052
0.000599135
0.000679064
0.000776503
0.000925736
0.00111223
0.00123071
0.00132636
0.00145486
0.00119353
0.000743413
0.000595559
0.000611686
0.000622799
0.000605678
0.00056799
0.000509568
0.000420888
0.000232192
0.000243709
0.00043631
0.000529579
0.000620351
0.000729591
0.000882565
0.00111653
0.00134973
0.00146072
0.00147252
0.00107624
0.000656806
0.000550921
0.000577667
0.000579912
0.000556434
0.000518535
0.000464476
0.000377439
0.000211107
0.000218186
0.000368424
0.0004467
0.000519049
0.000620879
0.000758494
0.000956791
0.00123938
0.00140269
0.00127402
0.000834425
0.000526322
0.000483215
0.000513519
0.000507912
0.000488138
0.000457944
0.000412683
0.000336534
0.000195099
0.000192192
0.000301366
0.000363158
0.000411757
0.000467778
0.000551511
0.000672002
0.000865458
0.00103022
0.000836899
0.00053069
0.00037081
0.000380325
0.000408516
0.00040967
0.000400376
0.00038211
0.000347816
0.000286525
0.00017645
0.000160357
0.000198392
0.000223389
0.000239577
0.000249978
0.000257019
0.000263943
0.000274549
0.000329765
0.000299298
0.00022796
0.000186089
0.000203177
0.000223692
0.0002331
0.000236301
0.000232343
0.000217521
0.000190139
0.0001482
0.000196229
0.000258652
0.000318216
0.00035102
0.000340621
0.000315205
0.000287076
0.000284673
0.000331991
0.000371319
0.000400225
0.000425828
0.000456872
0.000454485
0.000426528
0.000401253
0.000374057
0.000336079
0.000286682
0.000225681
0.00025478
0.000448465
0.000531948
0.000572718
0.000582632
0.000540053
0.000472059
0.000461921
0.000569103
0.000680937
0.00074747
0.000794472
0.00076422
0.000700393
0.000639105
0.000593957
0.000555411
0.000512148
0.000433664
0.000268623
0.000289663
0.000527014
0.000605025
0.000649783
0.000690155
0.000689526
0.000625463
0.000597166
0.000723174
0.000903166
0.00096604
0.000908926
0.00077004
0.000685161
0.000645135
0.000613928
0.000584412
0.000549945
0.000479219
0.000280548
0.000301429
0.000550324
0.000627347
0.000686591
0.000766013
0.00082888
0.000801423
0.000742254
0.000853292
0.00110431
0.00118345
0.000984345
0.000721479
0.000640974
0.000627194
0.000608885
0.000582073
0.000546777
0.000480041
0.000269038
0.000289393
0.00053037
0.000615591
0.000693996
0.000811588
0.000956949
0.00101419
0.000941687
0.00099318
0.00129779
0.00139794
0.00101983
0.000683207
0.000611568
0.000611856
0.000599043
0.000565688
0.000516486
0.000443004
0.000243494
0.000256569
0.000475176
0.000575096
0.000669617
0.000813365
0.00103685
0.00123071
0.0012211
0.00119213
0.00150189
0.00153931
0.00102764
0.000658692
0.000588371
0.000591927
0.000575752
0.000533294
0.000469729
0.000381679
0.000212685
0.00022048
0.000395244
0.000502027
0.000608153
0.000757378
0.00101244
0.00134973
0.00152208
0.0014716
0.0016935
0.00158017
0.000972505
0.00061298
0.000555518
0.000555486
0.000531045
0.000488055
0.000423871
0.000330895
0.00018422
0.000194908
0.000329456
0.0004119
0.000505138
0.000637968
0.000858388
0.00123938
0.00163648
0.00171444
0.00177059
0.00142096
0.000805766
0.000527453
0.000497706
0.000491481
0.000466804
0.000431363
0.000378312
0.000298348
0.000166835
0.000176655
0.000274012
0.00033544
0.000390871
0.000467807
0.000601923
0.000865458
0.00131261
0.00161844
0.00149527
0.000975338
0.000546004
0.000399466
0.000398482
0.00039558
0.000383002
0.000359963
0.00032237
0.000261359
0.000159519
0.000155831
0.000189322
0.000211791
0.000226667
0.000238034
0.000251157
0.000274549
0.000407065
0.000709237
0.000633725
0.000392312
0.00024498
0.000202807
0.000216876
0.000224628
0.00022484
0.000218897
0.000205842
0.000181297
0.000144021
0.000205974
0.000277039
0.000344042
0.000382139
0.000386011
0.000361669
0.000341313
0.000331991
0.000374111
0.000406457
0.000426002
0.000444322
0.000460545
0.000455667
0.000431971
0.000409942
0.000386092
0.000350338
0.000295685
0.000230832
0.000263022
0.000466705
0.00054604
0.000589396
0.000616217
0.000614967
0.000605095
0.000569103
0.0005569
0.000637083
0.000728802
0.000753009
0.000714575
0.000663599
0.000619794
0.000585936
0.000556516
0.000519915
0.00044736
0.000274331
0.000288533
0.000529405
0.000594236
0.000640394
0.000710978
0.000772808
0.000794253
0.000723174
0.000675058
0.000804994
0.000955181
0.000903242
0.000747189
0.000639271
0.00060314
0.000582745
0.000563795
0.000541531
0.000485937
0.000281016
0.000288683
0.000531324
0.000591516
0.000658733
0.000780711
0.000917921
0.000961444
0.000853292
0.000767177
0.00095596
0.00116888
0.00103274
0.000736861
0.000596439
0.000574245
0.000561163
0.000540783
0.000516839
0.000472197
0.000259956
0.000264617
0.000489197
0.000561223
0.000655127
0.000818679
0.00103901
0.00113807
0.00099318
0.000847977
0.00108711
0.00137155
0.00113718
0.000714665
0.000567735
0.000554861
0.000542893
0.000510233
0.000465765
0.000406308
0.000226313
0.00022413
0.000410406
0.00050948
0.000622327
0.000809428
0.00110838
0.00132636
0.00119213
0.000944045
0.00120276
0.00154757
0.00116958
0.000698125
0.000547142
0.00053382
0.000517878
0.000473064
0.000408386
0.00032442
0.000181544
0.000181647
0.000318391
0.000435072
0.000555016
0.000738258
0.00107392
0.00146072
0.0014716
0.001116
0.00134121
0.00161735
0.00115224
0.000669135
0.000517168
0.000500932
0.000478587
0.000432326
0.000363764
0.00027067
0.000146539
0.000155032
0.00026235
0.000354846
0.000455396
0.000605153
0.000897126
0.00140269
0.00171444
0.00141141
0.00152006
0.00158094
0.00103703
0.000592415
0.000464159
0.000447484
0.000423058
0.000385366
0.000330442
0.000249764
0.000129519
0.000146641
0.000229218
0.000292273
0.000349395
0.000432216
0.000607687
0.00103022
0.00161844
0.00167275
0.00164394
0.00138533
0.000807336
0.000459436
0.000373779
0.000362463
0.00034789
0.000323691
0.000285647
0.000227217
0.000135392
0.000143867
0.000170326
0.00019066
0.000207247
0.000221538
0.000241289
0.000329765
0.000709237
0.00109866
0.00107134
0.000788274
0.000440623
0.00024957
0.00020801
0.000211019
0.000209172
0.000201057
0.000186345
0.000163835
0.000134965
0.000215002
0.000293995
0.000363859
0.000404621
0.000424214
0.000409079
0.000382705
0.000371319
0.000406457
0.000445144
0.00045914
0.000471858
0.000467404
0.000454085
0.000433298
0.000415724
0.00039529
0.000361748
0.000302696
0.000234338
0.000270112
0.000478366
0.00055371
0.000597801
0.000645566
0.000681487
0.000693392
0.000680937
0.000637083
0.000636299
0.000702971
0.000718205
0.000662113
0.000619145
0.000594507
0.000574936
0.000555976
0.000526757
0.000460668
0.000278001
0.000285192
0.000524055
0.000567947
0.000602809
0.000694252
0.000820748
0.000911284
0.000903166
0.000804994
0.000819685
0.000939343
0.000852593
0.000670802
0.000565503
0.000545363
0.00054118
0.000537049
0.000529664
0.000489893
0.000278611
0.000271628
0.00049893
0.000522316
0.000572545
0.000715134
0.000953792
0.00112377
0.00110431
0.00095596
0.00100762
0.0011643
0.000988992
0.00067598
0.000517051
0.000495824
0.000492896
0.000485883
0.000478653
0.000454315
0.000247468
0.000235859
0.000421151
0.000451643
0.00053721
0.000715673
0.0010337
0.00131954
0.00129779
0.00108711
0.00116321
0.00135299
0.00110595
0.00066954
0.000490823
0.000468719
0.000457568
0.000433438
0.00040332
0.000360255
0.000204317
0.00019192
0.000310721
0.000376516
0.000495249
0.000686391
0.00103795
0.00145486
0.00150189
0.00120276
0.00126444
0.00149531
0.0011551
0.000651015
0.000473508
0.000447627
0.000427731
0.000387463
0.000334591
0.000266841
0.000140605
0.000134424
0.00022357
0.000315765
0.000437245
0.000610315
0.000944781
0.00147252
0.0016935
0.00134121
0.00133065
0.00154005
0.00112374
0.000631074
0.000449596
0.00042008
0.000397192
0.000354415
0.000293944
0.000219247
0.000116922
0.000115988
0.000193578
0.000276384
0.000365622
0.000492262
0.000748413
0.00127402
0.00177059
0.00152006
0.00142734
0.00148514
0.00101447
0.000566427
0.00040497
0.000378006
0.000357816
0.000325133
0.000276314
0.000205976
0.000116529
0.000124241
0.000190435
0.000243499
0.000290786
0.000353766
0.000489837
0.000836899
0.00149527
0.00164394
0.00151474
0.00131621
0.000808224
0.000448977
0.000328608
0.000310206
0.000298986
0.0002796
0.000247316
0.000197174
0.00012012
0.000130416
0.000150894
0.000168995
0.000184658
0.000198907
0.000218685
0.000299298
0.000633725
0.00107134
0.00104604
0.000803259
0.00047313
0.000268116
0.00019667
0.000191142
0.000187893
0.000179469
0.000165881
0.00014685
0.000123716
0.00022064
0.000303047
0.000374391
0.000416157
0.000445504
0.000449973
0.000413371
0.000400225
0.000426002
0.00045914
0.000472746
0.000487599
0.00047378
0.000454994
0.000436331
0.00042095
0.000401852
0.000368945
0.000307835
0.000235962
0.000274912
0.000484315
0.00055861
0.000601031
0.000658188
0.0007326
0.000766035
0.00074747
0.000728802
0.000702971
0.000716995
0.000690588
0.00063102
0.00059828
0.000584237
0.000571771
0.000557727
0.000532029
0.000468549
0.000279579
0.000284141
0.000522212
0.000553686
0.000565453
0.000631966
0.000783368
0.000925766
0.00096604
0.000955181
0.000939343
0.000897547
0.000742637
0.000568261
0.000505748
0.000510908
0.000519161
0.000525422
0.000525979
0.000491272
0.000276334
0.000262647
0.00048518
0.000483443
0.00049241
0.000575731
0.000790835
0.00107409
0.00118345
0.00116888
0.0011643
0.00109705
0.000817731
0.000525006
0.000433727
0.000440734
0.000451702
0.000458873
0.000462859
0.000443168
0.000239696
0.000223014
0.0003868
0.000390772
0.000427014
0.000532425
0.00078005
0.00117718
0.00139794
0.00137155
0.00135299
0.00128167
0.000898117
0.000511878
0.000401111
0.000400433
0.000400741
0.000392828
0.000376106
0.000335059
0.000173399
0.00015866
0.000269236
0.000307809
0.000373162
0.000489305
0.000732803
0.00119353
0.00153931
0.00154757
0.00149531
0.00141195
0.000927458
0.000500236
0.000382116
0.000372571
0.000362221
0.000339534
0.000303037
0.000243662
0.000124876
0.000118594
0.000197247
0.000257255
0.000329093
0.000433295
0.000638737
0.00107624
0.00158017
0.00161735
0.00154005
0.00139664
0.000891316
0.000486445
0.000361689
0.000345552
0.000331402
0.00030561
0.000264495
0.000203994
0.000117795
0.000114385
0.000179613
0.000235461
0.000289409
0.00036145
0.000503512
0.000834425
0.00142096
0.00158094
0.00148514
0.00127023
0.000785821
0.000438448
0.000327106
0.000311021
0.000299799
0.00027971
0.000244648
0.000190869
0.000116807
0.000115949
0.000174075
0.000213091
0.00024419
0.000279697
0.000347734
0.00053069
0.000975338
0.00138533
0.00131621
0.00102087
0.000609026
0.000352332
0.000268861
0.000257704
0.000252757
0.000241159
0.000218304
0.000178584
0.000114275
0.000117441
0.000132789
0.000146404
0.00015836
0.000170772
0.000186079
0.00022796
0.000392312
0.000788274
0.000803259
0.00059203
0.000369921
0.000225898
0.000172779
0.000165481
0.000162147
0.000155539
0.000145186
0.000130589
0.000111977
0.000220304
0.000295223
0.000366929
0.000413843
0.000445652
0.000462639
0.000446172
0.000425828
0.000444322
0.000471858
0.000487599
0.000488184
0.000481168
0.000464304
0.000443909
0.00042332
0.000398512
0.000360718
0.000302512
0.000233543
0.000275797
0.00047889
0.000564727
0.000619845
0.000673191
0.000741161
0.000798251
0.000794472
0.000753009
0.000718205
0.000690588
0.000653208
0.000634453
0.000633457
0.000615135
0.000593296
0.000569492
0.000534553
0.000459095
0.000277876
0.000290076
0.000530131
0.000587354
0.000606598
0.000636632
0.000712226
0.000836197
0.000908926
0.000903242
0.000852593
0.000742637
0.000592308
0.000526891
0.000551158
0.000566947
0.000568245
0.000564986
0.000552302
0.00049715
0.000282899
0.000277239
0.000524299
0.000552991
0.000551547
0.00056808
0.000641697
0.000811678
0.000984345
0.00103274
0.000988992
0.000817731
0.000553283
0.000442735
0.000476867
0.000511699
0.000525126
0.000528903
0.000524489
0.000487815
0.000260918
0.000247471
0.000469644
0.000489185
0.000494347
0.000515071
0.000590351
0.000783427
0.00101983
0.00113718
0.00110595
0.000898117
0.000547747
0.000403834
0.000435136
0.000475743
0.000489632
0.000486061
0.000468823
0.000423596
0.0002245
0.000208764
0.000377436
0.000415886
0.000440653
0.000471396
0.000544102
0.000743413
0.00102764
0.00116958
0.0011551
0.000927458
0.000553578
0.000385727
0.0004064
0.000445437
0.00045453
0.000439811
0.000405883
0.000342611
0.000179828
0.000168498
0.000296392
0.000351956
0.000391476
0.000426101
0.000486833
0.000656806
0.000972505
0.00115224
0.00112374
0.000891316
0.000539214
0.000368672
0.000377728
0.000411389
0.000415872
0.000394366
0.000351169
0.000280608
0.000139596
0.000141132
0.000244272
0.000303325
0.000344104
0.000372695
0.000412788
0.000526322
0.000805766
0.00103703
0.00101447
0.000785821
0.000483414
0.000335716
0.000339555
0.000365914
0.00036626
0.000345819
0.00030567
0.000240287
0.000120004
0.000131597
0.000203961
0.00025127
0.000283739
0.000302612
0.00031895
0.00037081
0.000546004
0.000807336
0.000808224
0.000609026
0.000386736
0.000277357
0.000279815
0.000297924
0.00029785
0.000283191
0.000253359
0.00020478
0.000126764
0.000132847
0.000151941
0.000165404
0.000173888
0.000177473
0.000177869
0.000186089
0.00024498
0.000440623
0.00047313
0.000369921
0.000249222
0.000175804
0.000169549
0.000178292
0.000179496
0.000174666
0.000164193
0.000148028
0.000125427
0.000215964
0.000283575
0.000344929
0.000392572
0.000426295
0.000449468
0.000457366
0.000456872
0.000460545
0.000467404
0.00047378
0.000481168
0.00047953
0.000458045
0.000435162
0.000411965
0.000384356
0.000344533
0.000292979
0.000228145
0.000269258
0.000455516
0.000549514
0.000611761
0.000668233
0.000723327
0.000764842
0.00076422
0.000714575
0.000662113
0.00063102
0.000634453
0.000665169
0.000651482
0.000621581
0.000592568
0.000563129
0.000523455
0.000441961
0.000271111
0.000288682
0.000515208
0.000595262
0.000632657
0.000663481
0.000699001
0.000741268
0.00077004
0.000747189
0.000670802
0.000568261
0.000526891
0.000584043
0.000613289
0.000609606
0.000597847
0.000582961
0.00055626
0.000484187
0.000281301
0.000284324
0.000527464
0.000592813
0.000612487
0.000624756
0.000641444
0.000674582
0.000721479
0.000736861
0.00067598
0.000525006
0.000442735
0.000510336
0.000568673
0.000584605
0.000583069
0.000573608