/*--------------------------------*- C++ -*----------------------------------*\
  =========                 |
  \\      /  F ield         | OpenFOAM: The Open Source CFD Toolbox
   \\    /   O peration     | Website:  https://openfoam.org
    \\  /    A nd           | Version:  8
     \\/     M anipulation  |
\*---------------------------------------------------------------------------*/
FoamFile
{
    version     2.0;
    format      ascii;
    class       surfaceScalarField;
    location    "200";
    object      phi;
}
// * * * * * * * * * * * * * * * * * * * * * * * * * * * * * * * * * * * * * //

dimensions      [1 0 -1 0 0 0 0];

internalField   nonuniform List<scalar> 
11200
(
0.000312789
-0.000593569
0.000312789
-0.000555949
0.000815321
5.33192e-05
-0.00159018
0.00129183
-0.000257679
-0.00253804
0.00137445
-0.000426663
-0.00335028
0.00131926
-0.000507108
-0.00399126
0.00124352
-0.000602633
-0.00438394
0.00120816
-0.000815567
-0.00441702
0.00124007
-0.00120707
-0.00399062
0.00132779
-0.00175427
-0.00305084
0.00140346
-0.00234332
-0.00174302
0.00151898
-0.00282686
-0.000432712
0.00192536
-0.00323573
0.000532513
0.00236769
-0.00333298
0.00114739
0.00266656
-0.0032815
0.00141611
0.00282695
-0.00309574
0.00134447
0.00288281
-0.00281124
0.000935593
0.00283299
-0.00242419
0.000275949
0.00260012
-0.00194055
-0.000341593
0.00201351
-0.00139605
0.000951633
-0.00129329
-0.000184847
-0.000223867
-0.000184847
-0.000935922
0.00182009
-0.00025371
-0.00171893
0.00259466
-0.000519851
-0.00239118
0.00275102
-0.000704345
-0.00290817
0.00262643
-0.000790214
-0.00325447
0.00239835
-0.000808548
-0.00340713
0.00217651
-0.00081574
-0.00331791
0.0020264
-0.000875584
-0.00292198
0.00197133
-0.00103952
-0.00223042
0.00199994
-0.00128807
-0.00135433
0.00219597
-0.00155313
-0.000488008
0.00292694
-0.00186794
0.000250099
0.00371454
-0.002085
0.000743978
0.00430978
-0.00213715
0.000962326
0.00469193
-0.00208338
0.000910271
0.00486968
-0.00193486
0.000622673
0.00482481
-0.00170428
0.000189116
0.00444999
-0.00141637
-0.00019071
0.00352597
-0.00113269
0.001995
-0.0012341
-0.000417743
0.000611656
-0.000417743
-0.00106488
0.00284872
-0.000381484
-0.00170753
0.00385617
-0.000618855
-0.00220826
0.00409837
-0.00084661
-0.00251614
0.00393376
-0.000999455
-0.00262338
0.00356515
-0.00105957
-0.00254639
0.00312755
-0.00102804
-0.00230126
0.00272232
-0.000941073
-0.00190705
0.00241849
-0.000841383
-0.00138446
0.00226154
-0.000784222
-0.000712925
0.00234228
-0.000817862
-0.000202502
0.00347269
-0.0010562
0.000222988
0.00456325
-0.00127423
0.000498
0.00541944
-0.00138471
0.000589739
0.00599821
-0.00139806
0.000501385
0.00628176
-0.00132378
0.000263141
0.00624296
-0.00117995
-4.109e-05
0.00574196
-0.000987791
-0.000238189
0.00454191
-0.000818877
0.00272918
-0.000972377
-0.000301326
0.00121433
-0.000301326
-0.000896633
0.00369931
-0.00025528
-0.00147751
0.00491846
-0.000481411
-0.00190291
0.00526731
-0.000743536
-0.00211614
0.00511425
-0.000967262
-0.00210668
0.00466511
-0.0011094
-0.00191109
0.0040535
-0.00112154
-0.00159906
0.0033883
-0.000978011
-0.00123694
0.00275698
-0.000700621
-0.000807697
0.00221444
-0.000382161
-6.05567e-05
0.00179572
-0.000200596
0.000233557
0.00353309
-0.000354534
0.000341836
0.00500423
-0.000549285
0.000349909
0.00609961
-0.000688275
0.000261296
0.00683954
-0.000752754
9.0876e-05
0.00719542
-0.000743275
-0.000123409
0.00713354
-0.000676338
-0.00034212
0.00651487
-0.000554243
-0.000393458
0.0050523
-0.000459091
0.00294569
-0.000609974
-9.3305e-05
0.00140096
-9.3305e-05
-0.000534098
0.00413444
5.67459e-06
-0.00104601
0.00560485
-0.000174464
-0.00143716
0.00608434
-0.000425871
-0.00164356
0.00600326
-0.000682597
-0.00165027
0.00556151
-0.000889676
-0.00150831
0.00487144
-0.000959884
-0.00132495
0.00400805
-0.000803115
-0.00113485
0.0029507
-0.000383839
-0.000594755
0.00158403
9.03005e-05
0.000779468
-6.45475e-05
0.000486017
0.000841311
0.0031001
0.000371122
0.000572145
0.00511339
0.000159984
0.000271132
0.00643993
-3.93346e-05
-2.47855e-05
0.00727717
-0.000141741
-0.000314434
0.00766475
-0.000179715
-0.000549989
0.00754319
-0.00017414
-0.000668907
0.00676207
-0.000128321
-0.000566142
0.00504459
-9.50784e-05
0.00260873
-0.000229184
0.000136257
0.00112847
0.000136257
-7.63925e-05
0.00402651
0.000320594
-0.000465153
0.00575454
0.000239071
-0.000813646
0.0063976
3.52442e-05
-0.00105719
0.00644012
-0.000193312
-0.00118447
0.00608788
-0.000399076
-0.00127811
0.00545138
-0.000486301
-0.00146612
0.0045182
-0.000322134
-0.00166419
0.00296904
0.000179725
-0.000646927
-0.000184021
0.000750764
0.00166158
-0.0034755
0.00110238
0.00155706
0.00222919
0.000975409
0.000864561
0.0049439
0.000861969
0.000179979
0.00646869
0.000655796
-0.000350078
0.00732142
0.000485781
-0.000724073
0.00765167
0.000387042
-0.00094158
0.0074354
0.000325262
-0.000964657
0.00649388
0.000291228
-0.000707488
0.00453957
0.000247826
0.00177697
0.000124263
0.000331792
0.000464896
0.000331792
0.000390539
0.00338529
0.000582469
0.000232201
0.00527333
0.00063956
-1.88853e-05
0.0060673
0.000581396
-0.000271769
0.00624501
0.000447999
-0.000526491
0.00606146
0.000281139
-0.000876866
0.00562307
0.000178688
-0.00135793
0.0046994
0.000299864
-0.00184356
0.00276379
0.000690855
-0.000591896
-0.00254105
0.00110532
0.00145321
-0.00606708
0.000546425
0.00169418
0.00100831
0.000979874
0.00080498
0.00456424
0.00126883
-0.000125146
0.00622917
0.00116963
-0.00076912
0.00692923
0.00103613
-0.00113781
0.00711352
0.000906808
-0.0012744
0.00679318
0.000778781
-0.00117406
0.00573991
0.000653599
-0.000787906
0.00361926
0.00053413
0.000578864
0.000410204
0.000452601
-0.000440298
0.000452601
0.000774202
0.00230096
0.000762739
0.000939293
0.00413697
0.000971271
0.00095663
0.00497684
0.00107312
0.000860299
0.00526321
0.00107814
0.000668338
0.00525171
0.00100171
0.000321308
0.00506899
0.000901106
-0.00023965
0.00440489
0.000855453
-8.36467e-05
0.00199245
0.000615332
0.00011564
-0.00331246
0.000572116
0.000468687
-0.00621897
-0.000201177
0.000924964
-0.000154923
0.000706928
-3.88592e-05
0.00403417
0.00149387
-0.000882733
0.00545663
0.00161639
-0.00135935
0.00585712
0.0015487
-0.00153566
0.0058858
0.001404
-0.00146062
0.00551436
0.00120374
-0.00118464
0.00449552
0.000968393
-0.000740562
0.00243574
0.00073943
-0.000756871
0.000595173
0.000287213
-0.00101477
0.000287213
0.000862966
0.000981522
0.000743677
0.00149011
0.0023367
0.00117313
0.00200277
0.00297162
0.00149256
0.00235257
0.00324158
0.00167183
0.00255782
0.00332872
0.00171774
0.00266605
0.00331114
0.00164962
0.00265816
0.0029389
0.00147387
0.00238749
0.00126407
0.000999043
0.000829439
-0.00224055
0.000486143
-0.00107974
-0.00429539
-1.44201e-05
-0.00167186
-0.000264322
0.000701489
-0.00198897
0.00258601
0.00176525
-0.00218133
0.0035276
0.00212137
-0.0021391
0.00369873
0.00211613
-0.00183128
0.00364266
0.00193531
-0.00130803
0.0033631
0.00162799
-0.000700716
0.00266119
0.001227
-0.000168114
0.00110647
0.000796664
-0.00141788
0.000492839
-0.000507408
-0.000507408
0.000207494
0.000266576
0.00150384
0.00104034
0.00280284
0.00167261
0.00393339
0.00211102
0.00490056
0.00236154
0.00577953
0.00243216
0.00642211
0.00229632
0.00576161
0.00192456
0.00216133
0.00135972
-0.00284801
0.00071395
-0.00470894
0.00159658
-0.00457211
0.00244917
-0.0038444
0.00279987
-0.00290366
0.00275797
-0.00173896
0.00247795
-0.000383978
0.00200812
0.00091443
0.00136276
0.00144752
0.000573346
2.96052e-05
5.33192e-05
0.000815321
-0.000555949
-0.000704634
0.00151582
-0.000704634
-0.00169288
0.00171036
-0.000979874
-0.00265455
0.00159345
-0.00105853
-0.00352052
0.00132537
-0.000966596
-0.00423164
0.000976317
-0.000867923
-0.00468146
0.00058008
-0.000945932
-0.00470771
0.000125822
-0.00130673
-0.00415342
-0.000323257
-0.00198539
-0.00292396
-0.000718391
-0.00285445
-0.00118333
-0.000863406
-0.00370415
0.0003549
-0.000226144
-0.00454788
0.00136817
0.000707756
-0.00505407
0.00196621
0.00143007
-0.00530969
0.00218661
0.00194981
-0.00526602
0.00204815
0.00232869
-0.00500154
0.00156495
0.00257765
-0.0045187
0.000825181
0.00267365
-0.0038745
0.000131443
0.00252081
-0.0032232
0.00189303
-0.00305494
-0.00025371
0.00182009
-0.000935922
-0.000885236
0.00277884
-0.000885236
-0.00161578
0.00301695
-0.00109593
-0.0022591
0.00278427
-0.00125189
-0.00275031
0.00228863
-0.0012623
-0.00307008
0.00163124
-0.00114375
-0.00319031
0.000866476
-0.000981947
-0.00306397
4.31619e-05
-0.000919307
-0.0025939
-0.000810846
-0.00102204
-0.00171151
-0.00156173
-0.00132717
-0.000580625
-0.00175314
-0.00179431
0.000277893
-0.000459119
-0.00249352
0.000932617
0.000977554
-0.00300956
0.00129201
0.00222505
-0.00329156
0.00138113
0.00319847
-0.00342121
0.00121239
0.0039051
-0.00334259
0.000828658
0.00435483
-0.00309778
0.000343285
0.00449984
-0.00275724
8.86918e-06
0.00422057
-0.00249809
0.00337735
-0.00270958
-0.000381484
0.00284872
-0.00106488
-0.000910712
0.00383728
-0.000910712
-0.00148082
0.00407646
-0.00110826
-0.0019511
0.00376227
-0.00135434
-0.00224351
0.00309319
-0.00151162
-0.00234487
0.00219359
-0.00152056
-0.00227667
0.00113069
-0.00136045
-0.00202913
-7.16816e-05
-0.00107379
-0.00159232
-0.00130723
-0.000781843
-0.000874515
-0.0024626
-0.000601184
3.78067e-05
-0.0028317
-0.000651651
0.000564093
-0.000900499
-0.00114113
0.000822825
0.00107079
-0.00162623
0.000889275
0.00275535
-0.00198149
0.000784077
0.00407389
-0.00216832
0.000542778
0.00501556
-0.00219297
0.000220155
0.00558392
-0.00208647
-8.79344e-05
0.00573116
-0.00191106
-0.000190607
0.00534533
-0.00184101
0.00442729
-0.00221295
-0.00025528
0.00369931
-0.000896633
-0.000668526
0.00466378
-0.000668526
-0.00113866
0.00492329
-0.000858104
-0.00153252
0.00459259
-0.00118
-0.00175881
0.00383632
-0.00148409
-0.00179027
0.00278364
-0.00166799
-0.00165526
0.00150365
-0.00162951
-0.00141548
2.35945e-05
-0.00131306
-0.00105776
-0.00160789
-0.000757689
-0.000399182
-0.0033583
-0.000145056
0.000621056
-0.00425475
0.000202183
0.000901579
-0.0014503
-8.5273e-05
0.000812041
0.00108568
-0.000474652
0.000549021
0.00313975
-0.000809676
0.000219968
0.00469105
-0.00104089
-0.000106515
0.00574397
-0.00114524
-0.000388995
0.00633889
-0.00114887
-0.000533492
0.00643538
-0.00111401
-0.00043872
0.00595901
-0.00116758
0.00499035
-0.00161177
5.67459e-06
0.00413444
-0.000534098
-0.000212348
0.00509983
-0.000212348
-0.000564744
0.0054507
-0.000349477
-0.000909918
0.00519914
-0.000687236
-0.00114848
0.00447915
-0.00108685
-0.00123733
0.0034116
-0.00142876
-0.00120127
0.00206105
-0.00155333
-0.00109734
0.000414893
-0.00129834
-0.000916008
-0.00155944
-0.000613614
-0.000263317
-0.00418608
0.000265367
0.00106909
-0.00584752
0.000746352
0.00122649
-0.00196627
0.000729656
0.000783746
0.00113544
0.000552945
0.00017606
0.00343214
0.000275941
-0.000364972
0.00505903
3.12843e-05
-0.000758777
0.00610132
-0.000143291
-0.00098608
0.00663237
-0.000240347
-0.000991992
0.00663181
-0.000318872
-0.000701531
0.00604807
-0.000474621
0.00499372
-0.000934093
0.000320594
0.00402651
-7.63925e-05
0.000340661
0.0050597
0.000340661
0.00017652
0.0055305
0.000323418
-7.35771e-05
0.00541071
7.37831e-05
-0.000316132
0.00483552
-0.000307121
-0.000512983
0.00392936
-0.000719982
-0.000695019
0.00273302
-0.000976225
-0.000876163
0.00113316
-0.000859254
-0.000958453
-0.00106916
-0.000228278
-0.000209034
-0.0047027
0.00051795
0.0012987
-0.00706113
0.000808207
0.00138943
-0.00224586
0.00116424
0.000598876
0.00142961
0.00135833
-0.000290969
0.00376297
0.00121479
-0.000952801
0.00521357
0.000993055
-0.00135466
0.00609065
0.000799545
-0.00150739
0.00648292
0.000627411
-0.00138436
0.0063482
0.000451775
-0.00092903
0.00562364
0.000216906
0.00441452
-0.000225585
0.000582469
0.00338529
0.000390539
0.000879468
0.00446571
0.000879468
0.000964359
0.00506012
0.00102506
0.000902959
0.00510807
0.000945444
0.000749851
0.00474369
0.000692948
0.000523848
0.0040967
0.000339807
0.000175852
0.0032318
2.79035e-05
-0.000306004
0.00196664
-5.17597e-05
-0.000487201
-0.000314071
0.000116964
0.000132306
-0.00471851
0.000501622
0.000919416
-0.00758335
0.000281511
0.000926855
-0.00236583
0.00109238
-2.05933e-10
0.00178613
0.00183914
-0.000953905
0.00390946
0.00197702
-0.00158003
0.00501473
0.00186107
-0.00189676
0.00564292
0.00167125
-0.00192548
0.00585321
0.00143717
-0.00166455
0.00557294
0.0011679
-0.00107316
0.00470515
0.000861203
0.00329808
0.000453475
0.000762739
0.00230096
0.000774202
0.00132737
0.00333645
0.00132737
0.00170861
0.00398919
0.00166096
0.00192524
0.00416735
0.00179721
0.00200063
0.00401134
0.0017351
0.00194823
0.00364596
0.00150485
0.00175459
0.00313469
0.00119184
0.00140925
0.00227855
0.000888883
0.00113283
0.000123553
0.000454121
0.000743175
-0.00409944
0.000342696
-6.48923e-05
-0.00690117
-7.53108e-05
-0.000483992
-0.00224766
0.00100783
-0.00123577
0.00182232
0.00220945
-0.00188881
0.00352088
0.002658
-0.00227133
0.00426465
0.00268128
-0.00235768
0.00462875
0.00250452
-0.00217411
0.00467367
0.00219968
-0.00175198
0.00430498
0.00181421
-0.00107643
0.00336313
0.00140589
0.00180312
0.0010137
0.000743677
0.000981522
0.000862966
0.00153006
0.00176369
0.00153006
0.00227425
0.00230843
0.0021097
0.00290919
0.00250693
0.00251804
0.00340306
0.00249031
0.00269899
0.00376463
0.00235126
0.00265087
0.00401746
0.00212382
0.00240765
0.00413018
0.00163788
0.00200181
0.00356194
0.000322658
0.00136817
0.00162546
-0.00254107
0.00086425
-0.000998499
-0.00465894
0.000367292
-0.00248203
-0.00152335
0.00146068
-0.00297564
0.00123467
0.00284649
-0.00311495
0.00232081
0.00346074
-0.00300098
0.00271043
0.00355636
-0.00264007
0.00285713
0.003346
-0.00207862
0.00282001
0.00292019
-0.0014114
0.00251439
0.00235036
-0.000719796
0.00171999
0.00174818
0.000309773
0.00126638
0.000266576
0.000207494
0.0011484
0.0011484
0.00236276
0.00213439
0.00360545
0.00293684
0.00474897
0.00345781
0.00577079
0.00369097
0.00667025
0.00365651
0.00723493
0.0033695
0.00659022
0.00289191
0.00317101
0.00223785
-0.00221742
0.00144343
-0.0048267
0.00268249
-0.00510048
0.00395761
-0.00449794
0.00451813
-0.00358515
0.00455561
-0.00247128
0.00422119
-0.00123188
0.00358871
-6.77732e-05
0.00271304
0.000549061
0.00167648
0.00088839
-0.000257679
0.00129183
-0.00159018
-0.000979874
0.00171036
-0.00169288
-0.00180823
0.00165663
-0.00180823
-0.00264016
0.00140428
-0.00163096
-0.00348947
0.00103871
-0.0011561
-0.00428983
0.000527227
-0.000594883
-0.00485356
-0.00015729
-0.000225014
-0.00503492
-0.00091343
-0.000212024
-0.00455512
-0.00178893
-0.000676341
-0.00315304
-0.00266086
-0.00159572
-0.00100719
-0.0030931
-0.00275696
0.000746044
-0.00215487
-0.00414629
0.00191866
-0.0009631
-0.00526364
0.00268067
-4.35033e-05
-0.00602826
0.00301918
0.000838708
-0.0064433
0.00299351
0.0014665
-0.00644243
0.00257833
0.00196859
-0.00607218
0.00180268
0.00235466
-0.00545357
0.000827503
0.00255413
-0.00480222
0.00232589
-0.00455339
-0.000519851
0.00259466
-0.00171893
-0.00109593
0.00301695
-0.00161578
-0.00168033
0.00282537
-0.00168033
-0.00216711
0.00231112
-0.00167199
-0.00253323
0.00163481
-0.00149232
-0.00281179
0.000799695
-0.00113771
-0.00301784
-0.000239767
-0.00069347
-0.00301871
-0.00153368
-0.000298228
-0.00263766
-0.00304991
-0.000142159
-0.00165601
-0.00458286
-0.000386866
-0.000265544
-0.00524896
-0.00102896
0.000810247
-0.00365169
-0.00207252
0.00153356
-0.00167541
-0.0030206
0.00187762
6.16469e-05
-0.0037408
0.00199996
0.00144387
-0.00414876
0.00185527
0.00255723
-0.00428867
0.00148766
0.0034182
-0.00417984
0.000975539
0.00403304
-0.00392355
0.000460425
0.00430863
-0.00373752
0.00403445
-0.00395776
-0.000618855
0.00385617
-0.00170753
-0.00110826
0.00407646
-0.00148082
-0.00155586
0.00372055
-0.00155586
-0.00189412
0.00299487
-0.00169983
-0.00206256
0.00205645
-0.00176482
-0.0020769
0.000955068
-0.00166161
-0.00199998
-0.000347525
-0.00132962
-0.00184956
-0.0019422
-0.000815704
-0.00149903
-0.00389614
-0.000286169
-0.000697145
-0.00599799
1.20368e-05
0.000414329
-0.00692115
-9.09666e-05
0.00106509
-0.0046927
-0.000750909
0.00134361
-0.00210485
-0.00147532
0.00138474
0.000140476
-0.00210148
0.00123875
0.00197784
-0.00255632
0.000976561
0.00340488
-0.00277847
0.000655485
0.00447215
-0.00281938
0.000359488
0.00518692
-0.00276898
0.000165545
0.00548613
-0.00282461
0.00526024
-0.00327323
-0.000481411
0.00491846
-0.00147751
-0.000858104
0.00492329
-0.00113866
-0.00122451
0.00445337
-0.00122451
-0.00151774
0.00360896
-0.00150085
-0.00164511
0.00249727
-0.00179753
-0.00158086
0.00119201
-0.00196916
-0.00138247
-0.000304843
-0.00187056
-0.00113421
-0.00208329
-0.00142022
-0.000800506
-0.00430617
-0.000681362
-7.1506e-05
-0.00692196
4.99095e-05
0.000951106
-0.0081688
0.000427208
0.00132491
-0.00532617
0.000174372
0.00121964
-0.00220673
-0.00026751
0.000886835
0.000416776
-0.000753191
0.000483945
0.002494
-0.00115418
0.000117771
0.00405235
-0.00142656
-0.000140156
0.00516571
-0.00158453
-0.000255016
0.00588492
-0.00169719
-0.000173833
0.0061621
-0.00192477
0.00600522
-0.00253062
-0.000174464
0.00560485
-0.00104601
-0.000349477
0.0054507
-0.000564744
-0.000609643
0.00497371
-0.000609643
-0.00088041
0.00414322
-0.000950713
-0.00104893
0.0030097
-0.00143073
-0.00104543
0.00164081
-0.00188103
-0.000880519
6.17405e-05
-0.00208478
-0.000622838
-0.00179633
-0.00184295
-0.000324814
-0.00413421
-0.00108358
0.000287594
-0.00718959
-7.94147e-05
0.00123587
-0.00894148
0.00057073
0.00140913
-0.00551949
0.000749688
0.00094953
-0.0019121
0.000717891
0.00027319
0.000914652
0.000454386
-0.000327773
0.00299346
0.00013277
-0.00074292
0.00447833
-0.000154152
-0.000930462
0.00550678
-0.000393904
-0.000861262
0.00613848
-0.000641669
-0.000535199
0.0063659
-0.00100451
0.0062487
-0.0017128
0.000239071
0.00575454
-0.000465153
0.000323418
0.0055305
0.00017652
0.000246904
0.00512675
0.000246904
7.1922e-05
0.00443065
-3.86461e-05
-0.000110659
0.00344945
-0.000564274
-0.000211602
0.002232
-0.00121021
-0.000187393
0.00079133
-0.00172999
-4.16024e-05
-0.000975689
-0.00182565
0.000206538
-0.00331368
-0.00129692
0.000594458
-0.00676756
-0.000291997
0.00122641
-0.00912728
0.000362044
0.00119159
-0.00530019
0.000979721
0.000405693
-0.0012296
0.00146172
-0.000492276
0.00152393
0.00150346
-0.00116257
0.00334027
0.00131652
-0.00154229
0.00460109
0.00105648
-0.00163034
0.00545721
0.000765001
-0.0014115
0.00594985
0.000421542
-0.000864059
0.00608864
-5.33017e-05
0.0059591
-0.000800058
0.00063956
0.00527333
0.000232201
0.00102506
0.00506012
0.000964359
0.00119949
0.00477791
0.00119949
0.00121323
0.00427216
0.0010902
0.00113605
0.00354409
0.000675494
0.00103632
0.00263758
3.39694e-05
0.000966928
0.00155921
-0.000670577
0.000960252
0.000130508
-0.00115126
0.00100816
-0.00213014
-0.00111447
0.0010106
-0.00583386
-0.000434509
0.000849008
-0.00871922
3.50331e-05
0.000409038
-0.00474971
0.000981837
-0.000529801
-0.000470189
0.00201854
-0.00140561
0.00196483
0.00241191
-0.00199241
0.00339438
0.00239374
-0.00226127
0.00435091
0.00219026
-0.00221428
0.00497379
0.00187359
-0.0018453
0.00528552
0.00146323
-0.00112975
0.00528778
0.000946491
0.00507911
0.000203699
0.000971271
0.00413697
0.000939293
0.00166096
0.00398919
0.00170861
0.00212296
0.00385393
0.00212296
0.00240302
0.00355691
0.0022324
0.00255083
0.00310369
0.00202769
0.00262224
0.00253071
0.00154032
0.00265836
0.00184288
0.00087205
0.00265
0.000853063
0.00017468
0.00239393
-0.00109683
-0.000323128
0.00159158
-0.00454956
-0.000139257
0.000152726
-0.00743649
8.07955e-05
-0.000915504
-0.00389272
0.00121903
-0.00180615
1.61429e-05
0.00261374
-0.00245636
0.00198907
0.00328395
-0.00281719
0.00300115
0.00343532
-0.00287175
0.00362373
0.00328624
-0.00263251
0.0039947
0.00293951
-0.00211045
0.00412112
0.00245652
-0.00127398
0.0039712
0.00188599
0.00360468
0.00121413
0.00117313
0.0023367
0.00149011
0.0021097
0.00230843
0.00227425
0.00288848
0.00229637
0.00288848
0.00352343
0.00218308
0.00325691
0.00402939
0.00198244
0.00331428
0.00443991
0.00171716
0.00305389
0.00477609
0.00138176
0.00253258
0.00492496
0.000839491
0.00186649
0.00437874
-0.000327459
0.001145
0.00248394
-0.00268169
0.000891181
-0.000438108
-0.00488442
0.000737255
-0.00246055
-0.00242029
0.00201065
-0.00336593
0.000265792
0.00350219
-0.00365124
0.00142081
0.00431429
-0.00361052
0.00197128
0.0045455
-0.0032956
0.0022668
0.00438798
-0.00275223
0.00241462
0.00395688
-0.00203588
0.00241064
0.00334448
-0.00115966
0.00217779
0.00266535
0.00167848
0.00203291
0.00104034
0.00150384
0.00213439
0.00236276
0.00328257
0.00328257
0.00439426
0.00400821
0.00542173
0.00441276
0.0063582
0.00447164
0.00717783
0.00421862
0.00765333
0.00373346
0.00705646
0.0031613
0.00401874
0.00259387
-0.00132357
0.0019013
-0.00446403
0.00340264
-0.00520065
0.00496
-0.00493025
0.00566852
-0.00423317
0.00582979
-0.00329766
0.00555248
-0.00222052
0.00492618
-0.00113651
0.00403965
-0.000331285
0.00304901
0.00223556
-0.000426663
0.00137445
-0.00253804
-0.00105853
0.00159345
-0.00265455
-0.00163096
0.00140428
-0.00264016
-0.00220071
0.00113941
-0.00220071
-0.0029579
0.000881553
-0.00128056
-0.00390293
0.000435822
-8.57821e-05
-0.00479609
-0.000273161
0.000941197
-0.00538057
-0.00120935
0.00158172
-0.00524409
-0.00242019
0.00160729
-0.00394048
-0.00374827
0.000848867
-0.00156068
-0.00454442
-0.000592406
0.000498126
-0.00365577
-0.00254938
0.00195071
-0.00226694
-0.00444934
0.00295125
-0.00110969
-0.00591917
0.00357947
-0.000234399
-0.00683718
0.00378648
0.000564275
-0.00721379
0.00351552
0.00126031
-0.00706159
0.00271908
0.00188946
-0.00654665
0.00146118
0.00238499
-0.00592937
0.00250919
-0.00560147
-0.000704345
0.00275102
-0.00239118
-0.00125189
0.00278427
-0.0022591
-0.00167199
0.00231112
-0.00216711
-0.001956
0.00170739
-0.001956
-0.00214148
0.00114735
-0.00157269
-0.0023655
0.000531407
-0.00100934
-0.00267879
-0.000386985
-0.000266425
-0.00294521
-0.00178077
0.000539562
-0.00287234
-0.00373826
0.00110299
-0.00202293
-0.00603088
0.0010463
-0.000499604
-0.00740929
0.000312543
0.00081117
-0.0060103
-0.0010288
0.00174758
-0.00381044
-0.00241354
0.00230814
-0.00184911
-0.00356198
0.00253735
-0.000229133
-0.00438327
0.00250006
0.00111708
-0.00480423
0.00219079
0.00227794
-0.00488825
0.00163703
0.00327981
-0.0047602
0.000903784
0.00402904
-0.00464837
0.00429364
-0.00483847
-0.00084661
0.00409837
-0.00220826
-0.00135434
0.00376227
-0.0019511
-0.00169983
0.00299487
-0.00189412
-0.00188318
0.00207408
-0.00188318
-0.00187121
0.00118285
-0.00181229
-0.00171396
0.000315012
-0.00160247
-0.00157346
-0.000690643
-0.00116647
-0.00151594
-0.00218799
-0.000466026
-0.00137079
-0.00450762
0.000338012
-0.000710476
-0.00751093
0.000831752
0.000391013
-0.00930842
0.000706652
0.00119802
-0.00749515
-7.30877e-05
0.00163484
-0.00468417
-0.00103843
0.00177526
-0.00214897
-0.00194206
0.00170909
-5.69812e-05
-0.00266233
0.00149407
0.00168882
-0.00313522
0.00119713
0.00311242
-0.00335695
0.000870059
0.00428343
-0.00344557
0.000511192
0.00515578
-0.00359251
0.00556955
-0.004038
-0.000743536
0.00526731
-0.00190291
-0.00118
0.00459259
-0.00153252
-0.00150085
0.00360896
-0.00151774
-0.00169359
0.00245958
-0.00169359
-0.00166339
0.00127447
-0.00191933
-0.00138834
0.000129961
-0.00205912
-0.000977303
-0.00102386
-0.00194835
-0.000610786
-0.00251731
-0.00145739
-0.000315255
-0.00493486
-0.000549648
0.000252837
-0.00835453
0.000325424
0.0010649
-0.0104434
0.000750135
0.00149255
-0.00828332
0.00053488
0.00148286
-0.00494932
7.31522e-06
0.0012199
-0.00201334
-0.00062588
0.000844621
0.00037407
-0.00120997
0.000488377
0.00227648
-0.001658
0.000235634
0.00376598
-0.00198537
0.000116686
0.00495318
-0.00224803
0.000108879
0.00583155
-0.00259277
0.00637197
-0.00322419
-0.000425871
0.00608434
-0.00143716
-0.000687236
0.00519914
-0.000909918
-0.000950713
0.00414322
-0.00088041
-0.00118583
0.00292983
-0.00118583
-0.0012522
0.00159709
-0.00168694
-0.00103907
0.000241146
-0.00220529
-0.000556843
-0.00109209
-0.00249871
2.73476e-05
-0.00260786
-0.00233651
0.000514947
-0.00497282
-0.00153316
0.000951969
-0.0084624
-0.000408531
0.00146102
-0.0108438
0.000462048
0.00153846
-0.00841364
0.00080254
0.00111735
-0.00461522
0.000804884
0.000481585
-0.00145741
0.000534201
-0.000122546
0.000963992
0.000146962
-0.000538203
0.00279434
-0.00025638
-0.000709845
0.00419301
-0.000649318
-0.000628513
0.00528884
-0.00105869
-0.000343774
0.00611172
-0.00156946
0.00669727
-0.0023819
3.52442e-05
0.0063976
-0.000813646
7.37831e-05
0.00541071
-7.35771e-05
-3.86461e-05
0.00443065
7.1922e-05
-0.000235526
0.00332362
-0.000235526
-0.000391288
0.00208882
-0.000900207
-0.000339761
0.0007444
-0.00176494
4.90365e-05
-0.000679963
-0.00253084
0.000708517
-0.00225202
-0.00284088
0.00127606
-0.00448956
-0.00234764
0.00153731
-0.00785477
-0.00116081
0.00158087
-0.0105428
1.74815e-05
0.00125911
-0.00796374
0.000851561
0.00044414
-0.00376291
0.00142435
-0.000450385
-0.000642367
0.00158293
-0.0011336
0.00153322
0.00143049
-0.00150977
0.00310749
0.00111948
-0.00157312
0.00431249
0.000708851
-0.00131462
0.00525175
0.000200108
-0.000766751
0.00596738
-0.000456859
0.00654549
-0.00141505
0.000581396
0.0060673
-1.88853e-05
0.000945444
0.00510807
0.000902959
0.0010902
0.00427216
0.00121323
0.00105668
0.00339065
0.00105668
0.000956611
0.00242156
0.000442844
0.000936067
0.00135289
-0.000553948
0.00116441
0.000133805
-0.00171264
0.00168952
-0.00136363
-0.00256469
0.00214509
-0.00348117
-0.00257836
0.00207084
-0.00666731
-0.00154767
0.00143906
-0.00958264
-0.0002933
0.000527993
-0.00698378
0.000912899
-0.000565745
-0.00267614
0.00202548
-0.00149836
0.00011902
0.00258313
-0.00211045
0.00186921
0.00266982
-0.00238266
0.00310589
0.00246405
-0.00231393
0.00404678
0.00207056
-0.00189804
0.00477663
0.00152244
-0.0011266
0.00534181
0.0008006
0.00585166
-0.000229091
0.00107312
0.00497684
0.00095663
0.00179721
0.00416735
0.00192524
0.0022324
0.00355691
0.00240302
0.00245359
0.00294829
0.00245359
0.00255631
0.00229838
0.00204814
0.00265703
0.00159596
0.00119652
0.0028571
0.000798283
7.50772e-06
0.00320136
-0.000342428
-0.00119077
0.00331528
-0.0021551
-0.0017631
0.00263463
-0.00499095
-0.00113494
0.00107727
-0.00787728
-6.72066e-05
-0.000545984
-0.00544702
0.00130546
-0.00179194
-0.00162744
0.00281097
-0.00260199
0.000586003
0.003627
-0.00304487
0.00184922
0.00389817
-0.00314134
0.00269471
0.00379388
-0.0029065
0.00332386
0.00342758
-0.00233975
0.00380243
0.00286395
-0.00139968
0.0041558
0.00213191
0.00449266
0.00117344
0.00149256
0.00297162
0.00200277
0.00251804
0.00250693
0.00290919
0.00325691
0.00218308
0.00352343
0.00379472
0.00187266
0.00379472
0.00420367
0.00155071
0.00365299
0.00456889
0.00120775
0.00307688
0.00495327
0.000810892
0.00213557
0.00522941
0.000240279
0.00100762
0.00497161
-0.000888949
0.000136615
0.00343945
-0.00279674
0.000229126
0.000570282
-0.00501347
0.00074261
-0.00186899
-0.00324179
0.00224464
-0.00319777
-0.000679586
0.00388309
-0.00379436
0.000636789
0.00486007
-0.00393707
0.0013146
0.00522281
-0.00374288
0.00173924
0.00514925
-0.00326413
0.0020406
0.00476137
-0.00252791
0.00225753
0.00415315
-0.00150027
0.00237748
0.00341602
0.0024179
0.00260738
0.00167261
0.00280284
0.00293684
0.00360545
0.00400821
0.00439426
0.00494454
0.00494454
0.00578101
0.00512698
0.00656029
0.00490009
0.00728546
0.00430432
0.00776744
0.00349173
0.00735631
0.00268346
0.00490425
0.00224917
-0.000129737
0.00192179
-0.00370684
0.00373792
-0.00494229
0.00551583
-0.00508113
0.00644414
-0.00469753
0.00676077
-0.00400549
0.00659967
-0.00310905
0.00607034
-0.00209089
0.005279
-0.00104603
0.00438162
0.0036074
-0.000507108
0.00131926
-0.00335028
-0.000966596
0.00132537
-0.00352052
-0.0011561
0.00103871
-0.00348947
-0.00128056
0.000881553
-0.0029579
-0.00181412
0.00106701
-0.00181412
-0.00296574
0.00123893
-0.000173214
-0.00446905
0.000921784
0.00152258
-0.00570869
-2.59048e-05
0.00284711
-0.00625928
-0.00130335
0.0034611
-0.00539968
-0.00305388
0.00304304
-0.00307396
-0.00453102
0.00161283
-0.000654024
-0.00430227
-0.000667122
0.00122037
-0.00305609
-0.00326771
0.0026925
-0.00195422
-0.00543714
0.00372773
-0.00104326
-0.00682922
0.00429825
-0.000281085
-0.00750328
0.00427013
0.000521782
-0.00755533
0.00351754
0.00135667
-0.0071508
0.00202868
0.00212728
-0.00656786
0.00259996
-0.0061728
-0.000790214
0.00262643
-0.00290817
-0.0012623
0.00228863
-0.00275031
-0.00149232
0.00163481
-0.00253323
-0.00157269
0.00114735
-0.00214148
-0.00159132
0.00110418
-0.00159132
-0.00171363
0.00130123
-0.000949425
-0.00215533
0.00119356
-9.66149e-05
-0.00288605
0.000269751
0.000974513
-0.00334808
-0.00179106
0.00205263
-0.00289938
-0.00480538
0.00234901
-0.00141654
-0.00740728
0.00170592
0.000174997
-0.00717601
0.000253369
0.00144412
-0.00524669
-0.00149209
0.00230426
-0.00331362
-0.00306275
0.00280528
-0.00167121
-0.00425636
0.00295497
-0.000250865
-0.00498418
0.00276079
0.00107226
-0.00524459
0.0022051
0.00237663
-0.00522451
0.00129266
0.00355442
-0.00516311
0.004367
-0.00531291
-0.000999455
0.00393376
-0.00251614
-0.00151162
0.00309319
-0.00224351
-0.00176482
0.00205645
-0.00206256
-0.00181229
0.00118285
-0.00187121
-0.00162998
0.000739554
-0.00162998
-0.0012962
0.00072312
-0.00135816
-0.00106547
0.000761561
-0.00096525
-0.00113097
0.000115671
-0.000246517
-0.00138889
-0.0020969
0.000901706
-0.00107533
-0.00600923
0.00172201
-5.14437e-05
-0.00941349
0.00168897
0.000911519
-0.0090666
0.000854519
0.00158212
-0.00660585
-0.000349892
0.00191926
-0.00404753
-0.0015453
0.00199822
-0.00186022
-0.00255231
0.00189994
-1.8943e-05
-0.00326888
0.00165407
0.00164399
-0.00368284
0.00130737
0.00316093
-0.00388322
0.000811354
0.00453029
-0.00407241
0.00560495
-0.00446463
-0.000967262
0.00511425
-0.00211614
-0.00148409
0.00383632
-0.00175881
-0.00179753
0.00249727
-0.00164511
-0.00191933
0.00127447
-0.00166339
-0.00174133
0.000383585
-0.00174133
-0.00122941
-3.66693e-05
-0.00181121
-0.000564886
-9.64723e-05
-0.00175482
-9.49973e-05
-0.00045134
-0.00136027
6.93814e-05
-0.00252708
-0.000283863
0.000378091
-0.00688094
0.000888438
0.000990454
-0.0106962
0.00142051
0.00146446
-0.0101967
0.00119099
0.00159468
-0.00722354
0.000494765
0.00145158
-0.00417759
-0.000352731
0.00116551
-0.00162834
-0.00115579
0.000841072
0.000471438
-0.00182396
0.000588238
0.00222996
-0.00231853
0.0004424
0.00376433
-0.00270561
0.000328312
0.00514672
-0.00309515