/*--------------------------------*- C++ -*----------------------------------*\
  =========                 |
  \\      /  F ield         | OpenFOAM: The Open Source CFD Toolbox
   \\    /   O peration     | Website:  https://openfoam.org
    \\  /    A nd           | Version:  8
     \\/     M anipulation  |
\*---------------------------------------------------------------------------*/
FoamFile
{
    version     2.0;
    format      ascii;
    class       volVectorField;
    location    "200";
    object      U;
}
// * * * * * * * * * * * * * * * * * * * * * * * * * * * * * * * * * * * * * //

dimensions      [0 1 -1 0 0 0 0];

internalField   nonuniform List<vector> 
4000
(
(0.00139812 -0.000535314 0.00139812)
(0.000571021 0.0033751 0.00021886)
(-0.0047522 0.00435309 -0.00132934)
(-0.00854514 0.00428604 -0.00218488)
(-0.0120574 0.00395776 -0.00278889)
(-0.0149852 0.00365289 -0.00346792)
(-0.017097 0.00344557 -0.00450406)
(-0.0179773 0.00328616 -0.00604408)
(-0.0171802 0.00307638 -0.00800203)
(-0.0144263 0.00281011 -0.0100269)
(-0.00991931 0.00273856 -0.0116272)
(-0.00399601 0.00385248 -0.0127275)
(0.000544879 0.00543203 -0.0125473)
(0.00364307 0.0066345 -0.0117975)
(0.00545232 0.00751622 -0.0106798)
(0.00590755 0.00813516 -0.00933746)
(0.00495518 0.00847681 -0.00775172)
(0.00299368 0.00833894 -0.00589183)
(-0.00106355 0.00715631 -0.00367772)
(-0.00119974 0.00415744 -0.00297974)
(-0.000275037 -0.00313205 -0.000275037)
(-0.0016245 0.00460092 -0.000883295)
(-0.00569967 0.00742907 -0.00205862)
(-0.00848548 0.00802231 -0.00285931)
(-0.0108636 0.00775027 -0.00335831)
(-0.0125771 0.00726003 -0.00367948)
(-0.0135801 0.00691762 -0.00399907)
(-0.0137161 0.00686873 -0.00450647)
(-0.0127552 0.0070538 -0.00533414)
(-0.0105718 0.0073621 -0.00638246)
(-0.00733136 0.0080058 -0.0073263)
(-0.00352214 0.0101069 -0.00818296)
(-0.000264194 0.0124026 -0.00851273)
(0.00225531 0.0141313 -0.00820739)
(0.00370671 0.0151913 -0.00758607)
(0.00407405 0.0156336 -0.00672164)
(0.00333963 0.015382 -0.0056474)
(0.00204977 0.0140748 -0.00439197)
(-0.000760046 0.0108819 -0.00298696)
(-0.000604213 0.00524864 -0.00287001)
(-0.000988158 0.00116554 -0.000988158)
(-0.00255154 0.0093376 -0.00122215)
(-0.00590669 0.0128808 -0.00227613)
(-0.0080854 0.0136631 -0.00317985)
(-0.00971838 0.0130571 -0.00382436)
(-0.0105162 0.0118335 -0.00419678)
(-0.0105432 0.0104959 -0.00432644)
(-0.00987168 0.00939152 -0.00433836)
(-0.00858453 0.00870896 -0.00436923)
(-0.00675094 0.00852341 -0.00454093)
(-0.00420995 0.0091904 -0.00483461)
(-0.00170711 0.0128386 -0.00542907)
(0.000146988 0.0166403 -0.00580037)
(0.00164437 0.0195577 -0.00575715)
(0.0024098 0.0214901 -0.00541886)
(0.00243657 0.0224109 -0.00484423)
(0.00168124 0.0222284 -0.0040809)
(0.000768211 0.0204686 -0.00314739)
(-0.00116449 0.0161982 -0.0021032)
(-0.000654709 0.00951472 -0.00207648)
(-0.000575375 0.00401531 -0.000575375)
(-0.00202169 0.013376 -0.000811901)
(-0.00508457 0.0177619 -0.00182909)
(-0.00699925 0.0188738 -0.00281713)
(-0.00830784 0.0181579 -0.0036337)
(-0.00867733 0.016438 -0.00420118)
(-0.00821433 0.0142612 -0.00441263)
(-0.00714104 0.0120669 -0.00423616)
(-0.00577665 0.0102088 -0.00378271)
(-0.00430703 0.00897061 -0.00330482)
(-0.00146134 0.0087568 -0.00301133)
(0.000772515 0.0144253 -0.00325515)
(0.00122315 0.0194109 -0.00352591)
(0.00151363 0.0233056 -0.00360808)
(0.00137329 0.0259716 -0.00347239)
(0.000873733 0.0272849 -0.00313583)
(-6.65961e-05 0.0271325 -0.00263373)
(-0.000806577 0.0249237 -0.00191134)
(-0.00203606 0.0196113 -0.00109961)
(-0.00103239 0.0117933 -0.00101752)
(4.20289e-05 0.00559002 4.20289e-05)
(-0.000810761 0.0161411 -2.43804e-05)
(-0.00345672 0.021437 -0.000915968)
(-0.00516576 0.0230237 -0.00186506)
(-0.00641151 0.0224588 -0.00274392)
(-0.00679302 0.0205685 -0.0034569)
(-0.00645547 0.0178656 -0.00378986)
(-0.00573222 0.0147898 -0.00354223)
(-0.00504221 0.0117018 -0.00270288)
(-0.00428041 0.00858864 -0.0017949)
(0.00078664 0.00584444 -0.000879354)
(0.00403415 0.0143581 -0.00111782)
(0.00293215 0.020906 -0.00137295)
(0.00173252 0.0256114 -0.00155805)
(0.000508351 0.0287252 -0.00162578)
(-0.000648414 0.0302397 -0.00149322)
(-0.00178701 0.0299021 -0.00120323)
(-0.00238368 0.0271183 -0.000713483)
(-0.00299755 0.0207653 -0.000119178)
(-0.00149697 0.0117324 1.79116e-05)
(0.000598834 0.00559209 0.000598834)
(0.000660712 0.016904 0.000832296)
(-0.00127478 0.0233439 0.000229284)
(-0.0026699 0.0255355 -0.000533095)
(-0.00394649 0.0254022 -0.00129688)
(-0.00461843 0.0237324 -0.00198957)
(-0.00494998 0.0210095 -0.00231806)
(-0.0054809 0.0175339 -0.00193812)
(-0.00658031 0.0129636 -0.000666874)
(-0.00633093 0.00529204 0.000837766)
(0.00272528 -0.00581807 0.00296205)
(0.00801269 0.0117011 0.00137919)
(0.00509944 0.02066 0.000757212)
(0.00199897 0.0262488 0.000336971)
(-0.000448121 0.0297032 8.05488e-05)
(-0.00220604 0.0312141 3.88132e-05)
(-0.00346054 0.0305677 0.000134793)
(-0.00385824 0.0271361 0.000393791)
(-0.00383531 0.0198061 0.000739567)
(-0.0019079 0.00945468 0.00083612)
(0.00105342 0.00381832 0.00105342)
(0.00196416 0.0155318 0.00160284)
(0.00121041 0.022811 0.00143826)
(0.000480853 0.0257064 0.000992577)
(-0.000664541 0.0261228 0.000441034)
(-0.00161399 0.0249837 -0.000111969)
(-0.00266293 0.0226756 -0.00037702)
(-0.00444587 0.0186998 9.02718e-05)
(-0.00766355 0.011093 0.00170199)
(-0.00483768 -0.00668843 0.00381311)
(0.000535933 -0.0235276 0.00207082)
(0.00912 0.00531118 0.00252786)
(0.00546127 0.0189264 0.00249326)
(0.00113889 0.0256658 0.00206907)
(-0.00207069 0.0290717 0.00174891)
(-0.00396566 0.0301829 0.00156363)
(-0.00502613 0.0291303 0.00144921)
(-0.00503397 0.0251181 0.00143103)
(-0.00435315 0.0169498 0.00147599)
(-0.00216375 0.00535639 0.00144764)
(0.00126619 0.000733404 0.00126619)
(0.00283903 0.0121905 0.00214223)
(0.00350312 0.0197684 0.00252689)
(0.00391483 0.0231242 0.00257577)
(0.00365189 0.0240794 0.00239179)
(0.00312109 0.0236641 0.00204817)
(0.00217526 0.0223327 0.00175972)
(0.000770878 0.0187619 0.00191586)
(-0.0037938 0.0092496 0.0021469)
(0.00397431 -0.0156465 0.00248702)
(-0.00310303 -0.0271439 -0.000347678)
(0.00591526 0.00206183 0.00213077)
(0.00219245 0.0173094 0.00363195)
(-0.00227792 0.0241549 0.00370847)
(-0.00477657 0.0264592 0.00347057)
(-0.00600357 0.0269226 0.00316642)
(-0.00623592 0.0254862 0.00278915)
(-0.0054871 0.021193 0.00238511)
(-0.0041798 0.0126568 0.002011)
(-0.00195464 8.90584e-05 0.00177205)
(0.000459965 -0.00433609 0.000459965)
(0.00236241 0.00623069 0.00213323)
(0.00485926 0.0132358 0.00332555)
(0.00715682 0.0164747 0.0041005)
(0.00882092 0.0176976 0.00449018)
(0.0099421 0.0178814 0.00453776)
(0.0105191 0.0174753 0.00434224)
(0.0107407 0.0152289 0.00407747)
(0.00849041 0.00582956 0.00336511)
(0.0123565 -0.0122945 0.00212425)
(-0.00456087 -0.0214302 0.000139915)
(-0.00602578 -0.00365758 0.00213269)
(-0.00636245 0.0135465 0.00495074)
(-0.00855813 0.0186009 0.00562625)
(-0.00888314 0.0197925 0.00551595)
(-0.00815469 0.0197151 0.0050325)
(-0.0065171 0.0182873 0.00427308)
(-0.00423199 0.0145243 0.0033023)
(-0.00188735 0.00664992 0.00219301)
(0.000347499 -0.0063831 0.00112303)
(-0.00201259 -0.00255269 -0.00201259)
(-0.00141354 0.00315092 0.000672652)
(0.0036413 0.00764341 0.00322147)
(0.00877435 0.00979605 0.00501813)
(0.0135796 0.0108629 0.00625091)
(0.01779 0.0113882 0.00698441)
(0.0213905 0.011607 0.00724146)
(0.0242443 0.0108114 0.00702341)
(0.0250845 0.00649407 0.00634737)
(0.0233712 -0.00198363 0.00488011)
(-0.00521692 -0.00863435 0.00282324)
(-0.0194988 0.00277878 0.00555058)
(-0.018098 0.0099256 0.00741617)
(-0.016915 0.0124624 0.00815946)
(-0.0136344 0.0127496 0.00794971)
(-0.00942724 0.0124019 0.00713361)
(-0.00449392 0.0114423 0.00585352)
(0.000917045 0.00913648 0.004059)
(0.00563607 0.00377356 0.00159374)
(0.00503578 -0.00341654 -0.00034369)
(0.00021886 0.0033751 0.000571021)
(-0.000112492 0.00502361 -0.000112492)
(-0.00520595 0.00503265 -0.00161348)
(-0.00891597 0.00436139 -0.00232741)
(-0.0125808 0.00339373 -0.00249488)
(-0.0158082 0.00223326 -0.00270149)
(-0.0182352 0.000974728 -0.00354626)
(-0.0192599 -0.000346792 -0.00537619)
(-0.0181798 -0.00180245 -0.00815732)
(-0.0145508 -0.00330547 -0.0113356)
(-0.00863181 -0.00416217 -0.0141953)
(-0.00110146 -0.00227218 -0.0168687)
(0.00380122 0.000270458 -0.0179206)
(0.00699587 0.00232736 -0.0180724)
(0.00869214 0.00394577 -0.0173647)
(0.00890855 0.0052993 -0.016013)
(0.00766178 0.00647161 -0.0140366)
(0.00537399 0.00740994 -0.0115632)
(0.000959374 0.00780551 -0.00904009)
(0.000642507 0.00660306 -0.0086892)
(-0.000883295 0.00460092 -0.0016245)
(-0.00163512 0.00851022 -0.00163512)
(-0.00531102 0.00959586 -0.0027792)
(-0.00797564 0.00897447 -0.00365423)
(-0.0102528 0.0074945 -0.00399714)
(-0.0118744 0.00551706 -0.00391697)
(-0.0127888 0.00326463 -0.00372121)
(-0.012831 0.000877504 -0.00382502)
(-0.0116345 -0.00158257 -0.00447054)
(-0.00890809 -0.00379852 -0.00566913)
(-0.00464031 -0.00438686 -0.00721114)
(-0.000293446 -0.000446053 -0.0093362)
(0.00266188 0.00410895 -0.0108386)
(0.00471382 0.00791604 -0.0114163)
(0.00564287 0.0108164 -0.0113931)
(0.00550359 0.0129252 -0.0107573)
(0.00434105 0.014272 -0.00961683)
(0.00269895 0.0146798 -0.00817902)
(-0.000127265 0.0136446 -0.00701892)
(0.000351999 0.010313 -0.00783914)
(-0.00122215 0.0093376 -0.00255154)
(-0.00216557 0.0132851 -0.00216557)
(-0.00501418 0.0142464 -0.00318283)
(-0.00707892 0.0131132 -0.00430591)
(-0.00863154 0.0107229 -0.00505678)
(-0.0093982 0.00754142 -0.00527808)
(-0.00943888 0.0038123 -0.00493284)
(-0.00880168 -0.000298292 -0.00418367)
(-0.00746246 -0.0045072 -0.0033473)
(-0.00521843 -0.00817586 -0.00277489)
(-0.00149554 -0.00908676 -0.00288474)
(0.00158834 -0.0028304 -0.00453135)
(0.00293942 0.00400061 -0.00606199)
(0.00361119 0.00993218 -0.00699208)
(0.00354221 0.0146175 -0.00732207)
(0.0028427 0.0180063 -0.00710163)
(0.00161766 0.0201045 -0.00645532)
(0.000441974 0.0207185 -0.00557294)
(-0.00120475 0.0193423 -0.00505059)
(-0.000128433 0.0156985 -0.00626013)
(-0.000811901 0.013376 -0.00202169)
(-0.00147583 0.0172639 -0.00147583)
(-0.00378456 0.0181875 -0.0024287)
(-0.00552131 0.0168006 -0.00374637)
(-0.00681123 0.0138421 -0.00490849)
(-0.00730982 0.00983238 -0.00561046)
(-0.00705332 0.0050527 -0.00553934)
(-0.00624028 -0.00034552 -0.00451698)
(-0.00511702 -0.00612096 -0.00260008)
(-0.00338483 -0.0117319 -0.000429226)
(0.000713202 -0.013854 0.000831587)
(0.00362987 -0.00457081 -0.000407664)
(0.00362314 0.00436256 -0.00185506)
(0.00282854 0.0118495 -0.00294521)
(0.00161171 0.0176548 -0.00355992)
(0.000270305 0.0217695 -0.00369548)
(-0.00105181 0.0242167 -0.00347004)
(-0.00183868 0.0247635 -0.00304415)
(-0.00250629 0.0230592 -0.00293388)
(-0.000825231 0.019271 -0.00421786)
(-2.43804e-05 0.0161411 -0.000810761)
(1.67593e-05 0.0199728 1.67593e-05)
(-0.00165385 0.0211073 -0.000715411)
(-0.00305485 0.0198174 -0.00200542)
(-0.0042923 0.0167226 -0.00338702)
(-0.00494003 0.012326 -0.00448481)
(-0.00498793 0.00690697 -0.00476547)
(-0.00463118 0.0005479 -0.00368864)
(-0.00426836 -0.00667255 -0.000990009)
(-0.00314931 -0.01521 0.00224438)
(0.00178908 -0.0199608 0.00404099)
(0.00559455 -0.00684836 0.00340912)
(0.00431812 0.00438727 0.00220026)
(0.00193812 0.0132185 0.000946857)
(-0.000454038 0.019797 4.41765e-05)
(-0.00233169 0.02412 -0.000378444)
(-0.0036258 0.0264346 -0.00052147)
(-0.00404321 0.0266687 -0.000521842)
(-0.003888 0.0245893 -0.000746131)
(-0.00163444 0.0206157 -0.00195512)
(0.000832296 0.016904 0.000660712)
(0.00173235 0.020876 0.00173235)
(0.00102565 0.0225029 0.00149958)
(0.000220724 0.0217087 0.000603075)
(-0.000854169 0.0189877 -0.000621541)
(-0.00173235 0.014845 -0.00178731)
(-0.00241369 0.00950554 -0.00224971)
(-0.00312078 0.00282862 -0.00121879)
(-0.00430167 -0.00547502 0.00155841)
(-0.00286722 -0.0176388 0.0041792)
(0.00196771 -0.026022 0.00466742)
(0.00685515 -0.00837211 0.00547756)
(0.00445506 0.0050828 0.00537566)
(0.000475276 0.0145037 0.00430595)
(-0.0027142 0.0208873 0.00334482)
(-0.00480053 0.0248386 0.00270741)
(-0.00593481 0.0267585 0.00223804)
(-0.00594401 0.0265353 0.00184694)
(-0.0050784 0.0239604 0.00133854)
(-0.00241191 0.0195429 0.000320067)
(0.00160284 0.0155318 0.00196416)
(0.0033107 0.0197225 0.0033107)
(0.00374775 0.0218478 0.00370488)
(0.0038171 0.0216882 0.00344542)
(0.00332278 0.0197765 0.00273866)
(0.00258031 0.016605 0.00184157)
(0.00155464 0.0123708 0.00126668)
(-3.78014e-05 0.00634333 0.0017045)
(-0.00311213 -0.00302243 0.00297255)
(0.000277505 -0.0197234 0.00393902)
(0.0010037 -0.0312909 0.00166457)
(0.00510554 -0.00999937 0.00467909)
(0.00244247 0.00623993 0.00694037)
(-0.00228227 0.0157058 0.00684944)
(-0.005353 0.020922 0.00622908)
(-0.00720189 0.024009 0.00552432)
(-0.00790069 0.025256 0.0047696)
(-0.00738327 0.0244459 0.00397939)
(-0.00586152 0.0212926 0.00315373)
(-0.00296643 0.0161547 0.00224002)
(0.00214223 0.0121905 0.00283903)
(0.00446877 0.0163775 0.00446877)
(0.00617491 0.0188954 0.00558498)
(0.00740526 0.0193809 0.00612176)
(0.00794734 0.0183617 0.00608233)
(0.00799217 0.0163459 0.00557607)
(0.00754367 0.0135855 0.00488609)
(0.00663082 0.00931336 0.00429345)
(0.00342959 0.000254479 0.00269572)
(0.00688567 -0.0192853 0.00188147)
(-0.000151253 -0.0303839 -0.000988633)
(-0.000940659 -0.0096576 0.00347724)
(-0.00279698 0.00788985 0.00787514)
(-0.00650273 0.0155756 0.00902204)
(-0.00859409 0.0193015 0.00888314)
(-0.0095182 0.021286 0.00818131)
(-0.00931809 0.0217635 0.00711415)
(-0.00804895 0.0204077 0.00582276)
(-0.00593282 0.0167651 0.00453269)
(-0.00309099 0.0109632 0.00358979)
(0.00213323 0.00623069 0.00236241)
(0.0046013 0.0102618 0.0046013)
(0.00770073 0.0129234 0.00671537)
(0.010509 0.0138155 0.00827002)
(0.0127502 0.0135254 0.00908298)
(0.0144492 0.0125266 0.00916681)
(0.0156269 0.0110177 0.00862297)
(0.0163033 0.00812644 0.00747198)
(0.0151812 0.000283527 0.0050997)
(0.0150057 -0.0138353 0.002607)
(-0.0003442 -0.0233181 4.48885e-05)
(-0.00949803 -0.00879 0.00439336)
(-0.0105183 0.005955 0.00948691)
(-0.0123451 0.0120363 0.0114973)
(-0.0124442 0.0144121 0.0116609)
(-0.0114956 0.0154393 0.0108304)
(-0.00963771 0.0153837 0.00929473)
(-0.00712226 0.0138378 0.00726119)
(-0.00429657 0.010024 0.00509778)
(-0.00203588 0.00332563 0.00357725)
(0.000672652 0.00315092 -0.00141354)
(0.00229431 0.00571554 0.00229431)
(0.00706426 0.00755902 0.00614552)
(0.0120249 0.00835381 0.00916723)
(0.0168016 0.0085293 0.011167)
(0.0211392 0.00837294 0.0122005)
(0.0249473 0.00799397 0.0123366)
(0.0278889 0.00690341 0.0115319)
(0.0287037 0.00351545 0.00980118)
(0.025985 -0.00358601 0.0071479)
(0.000469892 -0.0107348 0.00395516)
(-0.0196144 -0.000891853 0.00849365)
(-0.0202021 0.00589424 0.0128457)
(-0.0193516 0.00872018 0.014678)
(-0.0162919 0.00958168 0.0146579)
(-0.0122307 0.00979483 0.013412)
(-0.00753229 0.00951312 0.0111738)
(-0.00268207 0.00841066 0.00804358)
(0.00174269 0.00545353 0.00403138)
(0.00207051 0.000193349 0.000935778)
(-0.00132934 0.00435309 -0.0047522)
(-0.00161348 0.00503265 -0.00520595)
(-0.0059897 0.00435972 -0.0059897)
(-0.00897929 0.00336832 -0.00586967)
(-0.0123266 0.00216637 -0.00488468)
(-0.0158255 0.000537772 -0.00375075)
(-0.0188028 -0.00150735 -0.00333223)
(-0.0203434 -0.00397341 -0.00413246)
(-0.0196804 -0.00675029 -0.00633106)
(-0.0157942 -0.00955448 -0.00967628)
(-0.00868023 -0.0111931 -0.0135381)
(-1.68023e-05 -0.00833487 -0.0181449)
(0.00563959 -0.00447229 -0.0216111)
(0.00948454 -0.00156474 -0.0238529)
(0.0117738 0.000550281 -0.0245512)
(0.012499 0.00232617 -0.0239211)
(0.0116517 0.00397733 -0.0221029)
(0.00949035 0.00560037 -0.0194748)
(0.00473415 0.00704722 -0.0168228)
(0.00308532 0.00734081 -0.0159716)
(-0.00205862 0.00742907 -0.00569967)
(-0.0027792 0.00959586 -0.00531102)
(-0.00585559 0.00927894 -0.00585559)
(-0.00786866 0.0077861 -0.0061862)
(-0.00954812 0.005751 -0.00588432)
(-0.0108428 0.00311803 -0.00496834)
(-0.0118758 -0.000316855 -0.00378602)
(-0.0124046 -0.00464281 -0.00293058)
(-0.0117391 -0.00958745 -0.00285809)
(-0.00899765 -0.0144713 -0.00390163)
(-0.00386733 -0.016688 -0.00604138)
(0.00151697 -0.0115319 -0.00959414)
(0.00490045 -0.00496709 -0.01263)
(0.00706445 0.000698521 -0.0147459)
(0.00804878 0.00510741 -0.0158409)
(0.00801156 0.00857244 -0.0159358)
(0.00696946 0.0112869 -0.0151765)
(0.00533542 0.0132549 -0.0139308)
(0.00233608 0.0140641 -0.0130392)
(0.00202927 0.0126899 -0.0139723)
(-0.00227613 0.0128808 -0.00590669)
(-0.00318283 0.0142464 -0.00501418)
(-0.00554249 0.0131392 -0.00554249)
(-0.00709246 0.010603 -0.00635039)
(-0.0081152 0.00731594 -0.00681827)
(-0.00844106 0.00339856 -0.00662242)
(-0.00827846 -0.00135822 -0.00560483)
(-0.00786924 -0.00723558 -0.00397465)
(-0.00700288 -0.0142903 -0.00230858)
(-0.00478283 -0.0215522 -0.00132145)
(-0.000392093 -0.0246098 -0.00161098)
(0.00340391 -0.0170346 -0.00394901)
(0.00502732 -0.00794778 -0.0064662)
(0.00563093 2.83484e-05 -0.00851873)
(0.00541755 0.00666661 -0.00984249)
(0.00458321 0.0119213 -0.0103459)
(0.0033551 0.0159255 -0.0101884)
(0.00220484 0.0186827 -0.00971563)
(0.000527731 0.0198483 -0.00972435)
(0.00114895 0.0187376 -0.0115155)
(-0.00182909 0.0177619 -0.00508457)
(-0.0024287 0.0181875 -0.00378456)
(-0.00430176 0.0164493 -0.00430176)
(-0.00564206 0.0131927 -0.00551556)
(-0.00653617 0.00898057 -0.0067358)
(-0.00664761 0.00408783 -0.0074373)
(-0.00605905 -0.0015655 -0.00710735)
(-0.00511149 -0.00839945 -0.00546125)
(-0.00408449 -0.016895 -0.00280261)
(-0.00217638 -0.026397 -0.000140876)
(0.00192165 -0.0306011 0.00122126)
(0.00512781 -0.0204529 0.000149354)
(0.00535669 -0.00897172 -0.00152139)
(0.00432541 0.000897553 -0.0032303)
(0.00277982 0.00886352 -0.00457481)
(0.00119503 0.015008 -0.00534818)
(-0.000146274 0.0195354 -0.00566159)
(-0.000805556 0.0225154 -0.00581173)
(-0.00135014 0.0237156 -0.00643669)
(0.000198236 0.0229438 -0.00873381)
(-0.000915968 0.021437 -0.00345672)
(-0.000715411 0.0211073 -0.00165385)
(-0.00197049 0.0191016 -0.00197049)
(-0.00305521 0.0155894 -0.00332897)
(-0.00401897 0.0109221 -0.00508892)
(-0.00437619 0.00540269 -0.00665153)
(-0.00401805 -0.000887554 -0.00726553)
(-0.00307308 -0.00821415 -0.00614705)
(-0.0020863 -0.0174221 -0.00320831)
(-0.000295026 -0.0287984 0.000493403)
(0.00311558 -0.0346119 0.00268987)
(0.0060011 -0.0220461 0.00304646)
(0.00509757 -0.0085842 0.00263047)
(0.00247792 0.00245496 0.00152297)
(-0.000232775 0.0110789 0.000278221)
(-0.00229668 0.0173751 -0.000646755)
(-0.00352829 0.0217491 -0.00131707)
(-0.00369084 0.0245024 -0.00197767)
(-0.00325044 0.0255553 -0.00307949)
(-0.00083147 0.025044 -0.00562233)
(0.000229284 0.0233439 -0.00127478)
(0.00149958 0.0225029 0.00102565)
(0.00117028 0.0206821 0.00117028)
(0.000670723 0.0175374 0.000133436)
(-0.000137048 0.0131157 -0.00167833)
(-0.000763562 0.00767587 -0.00373375)
(-0.000919693 0.001374 -0.00521442)
(-0.000558795 -0.00608389 -0.00516525)
(1.9226e-06 -0.0154579 -0.00291304)
(0.00184537 -0.0284752 0.000745089)
(0.00349984 -0.0368248 0.00239748)
(0.00545318 -0.0220025 0.00436798)
(0.00372905 -0.00664062 0.00580378)
(-0.000322438 0.00494948 0.00562306)
(-0.0035616 0.0129544 0.00471021)
(-0.00564966 0.018547 0.00376991)
(-0.00659482 0.0224001 0.00283864)
(-0.0062682 0.0247119 0.00179666)
(-0.00500032 0.0254981 0.000377188)
(-0.00188072 0.0251018 -0.00221445)
(0.00143826 0.022811 0.00121041)
(0.00370488 0.0218478 0.00374775)
(0.00454109 0.0204249 0.00454109)
(0.00492405 0.017975 0.0041861)
(0.00472886 0.0145073 0.00289538)
(0.00433105 0.0101842 0.00100981)
(0.00400857 0.00498004 -0.000850884)
(0.00380556 -0.00171398 -0.00197028)
(0.00342735 -0.0111741 -0.00162164)
(0.00526833 -0.0258916 0.00051397)
(0.00345714 -0.0367964 0.000807369)
(0.00253686 -0.0207504 0.00423968)
(0.000304099 -0.00331702 0.00790414)
(-0.00415326 0.00733744 0.00899527)
(-0.00708101 0.0138847 0.00867353)
(-0.00878969 0.0183826 0.0078592)
(-0.00923194 0.021395 0.00674428)
(-0.00834607 0.0230515 0.00537669)
(-0.00635958 0.0233998 0.00371426)
(-0.00285351 0.0228411 0.00135801)
(0.00252689 0.0197684 0.00350312)
(0.00558498 0.0188954 0.00617491)
(0.00769006 0.0180009 0.00769006)
(0.00919295 0.0163832 0.00821482)
(0.0100051 0.0140264 0.00773655)
(0.0103984 0.0110801 0.00639181)
(0.010592 0.00757978 0.00456136)
(0.0107325 0.0027807 0.0027532)
(0.00969307 -0.00602041 0.000884129)
(0.0103474 -0.0212024 0.000877154)
(0.00363818 -0.0330704 0.000393747)
(-0.00278198 -0.0174721 0.00468768)
(-0.00516915 -0.000293762 0.00984576)
(-0.0087625 0.00852315 0.0121106)
(-0.0108167 0.0134183 0.0124411)
(-0.0116559 0.0165791 0.0117612)
(-0.0112762 0.0185651 0.0104311)
(-0.00970065 0.0194492 0.00867698)
(-0.00708557 0.0192234 0.00671905)
(-0.00351584 0.0182771 0.00459691)
(0.00332555 0.0132358 0.00485926)
(0.00671537 0.0129234 0.00770073)
(0.010091 0.0126987 0.010091)
(0.0129598 0.0119192 0.0116905)
(0.0152251 0.0106255 0.0122383)
(0.0170281 0.00894267 0.0117128)
(0.0184862 0.00685023 0.010286)
(0.0195829 0.00358867 0.00822816)
(0.0188565 -0.00324746 0.00553762)
(0.0173644 -0.014813 0.00400825)
(0.00448696 -0.0247936 0.00264086)
(-0.00919672 -0.0132434 0.00724335)
(-0.0118279 0.000186854 0.0129507)
(-0.0142615 0.00699783 0.0157939)
(-0.0147541 0.0102836 0.0164263)
(-0.0140364 0.0121589 0.0156496)
(-0.0122956 0.0131789 0.0138889)
(-0.00971377 0.0133476 0.011491)
(-0.00649736 0.0124549 0.00893701)
(-0.00340239 0.0105875 0.00679265)
(0.00322147 0.00764341 0.0036413)
(0.00614552 0.00755902 0.00706426)
(0.0108151 0.00760014 0.0108151)
(0.0154167 0.0073908 0.0139205)
(0.0197178 0.00696572 0.0158627)
(0.0236516 0.00639429 0.0165542)
(0.0271684 0.00566962 0.0160894)
(0.0299218 0.00441365 0.0146296)
(0.0305116 0.00156347 0.0125899)
(0.0274004 -0.00455875 0.0100893)
(0.00626523 -0.0120951 0.00704653)
(-0.017729 -0.00382048 0.0124505)
(-0.0201421 0.00294941 0.0181237)
(-0.020546 0.0059443 0.020595)
(-0.0184829 0.00722227 0.0209397)
(-0.0151738 0.0078492 0.0196498)
(-0.0111095 0.00809067 0.0170617)
(-0.00673847 0.00785804 0.0134853)
(-0.00247649 0.00675131 0.00948053)
(-0.000869379 0.00452753 0.00645014)
(-0.00218488 0.00428604 -0.00854514)
(-0.00232741 0.00436139 -0.00891597)
(-0.00586967 0.00336832 -0.00897929)
(-0.00756821 0.00251869 -0.00756821)
(-0.0100383 0.00174712 -0.0046882)
(-0.0138357 0.000128065 -0.00139861)
(-0.0179448 -0.00247613 0.00112662)
(-0.0211253 -0.00576727 0.0022311)
(-0.0219673 -0.00962733 0.00127399)
(-0.0187024 -0.01363 -0.00209394)
(-0.0112177 -0.0160454 -0.00696421)
(-0.0018853 -0.013085 -0.0134565)
(0.00520226 -0.00831522 -0.0195651)
(0.00996202 -0.00481248 -0.0241222)
(0.0133908 -0.00223768 -0.0270646)
(0.0152276 -0.000215187 -0.0279283)
(0.0152162 0.00171167 -0.0269011)
(0.0133913 0.00378762 -0.0246309)
(0.00816981 0.0059602 -0.0220945)
(0.00519575 0.00742479 -0.0209192)
(-0.00285931 0.00802231 -0.00848548)
(-0.00365423 0.00897447 -0.00797564)
(-0.0061862 0.0077861 -0.00786866)
(-0.00738211 0.00611704 -0.00738211)
(-0.00822783 0.00460816 -0.00623072)
(-0.00901405 0.00266279 -0.00442713)
(-0.0101901 -0.000657157 -0.00207693)
(-0.0115882 -0.00573634 0.000318733)
(-0.012201 -0.0124295 0.00166859)
(-0.0103092 -0.0199551 0.00107178)
(-0.00510753 -0.0244626 -0.00165986)
(0.000958826 -0.0198191 -0.00642)
(0.00533645 -0.0124231 -0.0110896)
(0.0083141 -0.00584467 -0.0148906)
(0.00996921 -0.000527326 -0.0174552)
(0.0103897 0.00382487 -0.0186043)
(0.00971553 0.00757805 -0.0185846)
(0.00816802 0.0108733 -0.0178424)
(0.00480023 0.0132744 -0.0172749)
(0.00352553 0.0137073 -0.0181165)
(-0.00317985 0.0136631 -0.0080854)
(-0.00430591 0.0131132 -0.00707892)
(-0.00635039 0.010603 -0.00709246)
(-0.00736224 0.00751179 -0.00736224)
(-0.00768518 0.00460776 -0.00736209)
(-0.00727092 0.00169777 -0.0067376)
(-0.00659852 -0.00213587 -0.0051904)
(-0.00628103 -0.00808109 -0.0027398)
(-0.0061372 -0.0168979 -4.68394e-05)
(-0.00456003 -0.0276054 0.00152093)
(-0.000527418 -0.0340437 0.00109669)
(0.00353216 -0.0275786 -0.00178543)
(0.00587933 -0.0175848 -0.00517256)
(0.00698921 -0.00852009 -0.00828768)
(0.00714909 -0.000982987 -0.0106851)
(0.00654913 0.00537564 -0.0120738)
(0.00549782 0.0107484 -0.012634)
(0.00436777 0.015267 -0.0127452)
(0.00244401 0.0186038 -0.0132044)
(0.00233041 0.0199125 -0.0150598)
(-0.00281713 0.0188738 -0.00699925)
(-0.00374637 0.0168006 -0.00552131)
(-0.00551556 0.0131927 -0.00564206)
(-0.00656577 0.00893894 -0.00656577)
(-0.00695227 0.00471159 -0.00764997)
(-0.00632589 0.000708837 -0.00830057)
(-0.00483793 -0.00356634 -0.00786497)
(-0.00319564 -0.00956283 -0.00596445)
(-0.00204238 -0.019241 -0.00267331)
(-0.000287423 -0.0324553 0.000604069)
(0.00283071 -0.0402825 0.00223119)
(0.00547509 -0.0322887 0.0013089)
(0.00620527 -0.0198992 -0.000587194)
(0.00552945 -0.00880287 -0.00284172)
(0.00417243 0.000368418 -0.00479526)
(0.0026405 0.00783847 -0.00626559)
(0.00136963 0.0138577 -0.00725988)
(0.000744632 0.0187221 -0.00804916)
(5.66496e-05 0.0223284 -0.00926758)
(0.00113687 0.0242815 -0.0118593)
(-0.00186506 0.0230237 -0.00516576)
(-0.00200542 0.0198174 -0.00305485)
(-0.00332897 0.0155894 -0.00305521)
(-0.00436244 0.0106762 -0.00436244)
(-0.00508354 0.00545233 -0.00636651)
(-0.00487159 0.000326103 -0.00836343)
(-0.00344151 -0.00462727 -0.00936986)
(-0.00111426 -0.0105455 -0.00858218)
(0.00107281 -0.0202127 -0.00547628)
(0.00321647 -0.0343333 -0.0011366)
(0.00509055 -0.0432703 0.00195266)
(0.00630011 -0.0339962 0.00302519)
(0.00561599 -0.0196957 0.00303389)
(0.00326417 -0.00736178 0.00198813)
(0.000589328 0.00256087 0.000665515)
(-0.00151121 0.0103066 -0.000769199)
(-0.00269214 0.0162011 -0.00205605)
(-0.00276846 0.0208321 -0.0034039)
(-0.00234941 0.0242979 -0.00523194)
(-8.95331e-05 0.026633 -0.00842455)
(-0.000533095 0.0255355 -0.0026699)
(0.000603075 0.0217087 0.000220724)
(0.000133436 0.0175374 0.000670723)
(-0.000491461 0.0127152 -0.000491461)
(-0.00135037 0.00729961 -0.00290318)
(-0.00169669 0.00160722 -0.00596167)
(-0.000953191 -0.00407477 -0.00862689)
(0.00132036 -0.0102471 -0.00945964)
(0.00402093 -0.0194234 -0.00744869)
(0.00639681 -0.0332206 -0.00300295)
(0.00660248 -0.0434886 0.000730569)
(0.00569588 -0.033307 0.00362317)
(0.00374886 -0.0172342 0.00580282)
(-8.88006e-05 -0.0042688 0.00625594)
(-0.00345658 0.00523029 0.00566868)
(-0.00555817 0.0121323 0.00449008)
(-0.00643031 0.0174239 0.00307817)
(-0.00596286 0.0215546 0.00136618)
(-0.00458416 0.0246611 -0.000926187)
(-0.00135228 0.0270525 -0.0045117)
(0.000992577 0.0257064 0.000480853)
(0.00344542 0.0216882 0.0038171)
(0.0041861 0.017975 0.00492405)
(0.0044035 0.0139361 0.0044035)
(0.00404459 0.00943527 0.00238334)
(0.00371156 0.00440142 -0.000820672)
(0.00391731 -0.00127563 -0.00458263)
(0.00542668 -0.00767482 -0.00730756)
(0.00773831 -0.0163996 -0.0072501)
(0.00972686 -0.0295871 -0.00374615)
(0.00767148 -0.0410122 -0.000254486)
(0.00336156 -0.0305087 0.00390584)
(0.000173908 -0.0128532 0.00821678)
(-0.00439061 -0.000760036 0.0101686)
(-0.0075397 0.00716258 0.0103276)
(-0.00929365 0.0128494 0.00949446)
(-0.0096914 0.0172046 0.00807273)
(-0.00866295 0.0206042 0.00615159)
(-0.00647648 0.0232452 0.00365191)
(-0.00258719 0.0255258 7.1052e-05)
(0.00257577 0.0231242 0.00391483)
(0.00612176 0.0193809 0.00740526)
(0.00821482 0.0163832 0.00919295)
(0.00952833 0.0133605 0.00952833)
(0.0101019 0.0101089 0.00835175)
(0.0104155 0.00656595 0.0057732)
(0.0109986 0.00251825 0.00226378)
(0.0119497 -0.00298366 -0.00147818)
(0.0131811 -0.011272 -0.0035215)
(0.0137725 -0.023606 -0.00189592)
(0.00866031 -0.0353853 0.000512405)
(-0.000701591 -0.0251584 0.00537057)
(-0.00472476 -0.00824843 0.0110487)
(-0.00913638 0.00192938 0.0140793)
(-0.0116043 0.00798451 0.0148957)
(-0.0126778 0.012166 0.0143747)
(-0.0123885 0.0153312 0.0129389)
(-0.0107354 0.0177954 0.0108407)
(-0.00785062 0.0197454 0.0082354)
(-0.00367677 0.0216507 0.00496618)
(0.0041005 0.0164747 0.00715682)
(0.00827002 0.0138155 0.010509)
(0.0116905 0.0119192 0.0129598)
(0.0142643 0.0100698 0.0142643)
(0.0161147 0.00811785 0.0141487)
(0.0175981 0.00601541 0.0125642)
(0.0190616 0.00358149 0.0097793)
(0.0205414 5.16115e-05 0.0064234)
(0.0208008 -0.00619141 0.00338775)
(0.0194833 -0.0158411 0.00300677)
(0.0102496 -0.0259541 0.00347721)
(-0.00625661 -0.0176835 0.00895511)
(-0.0105315 -0.00493419 0.0150512)
(-0.0144046 0.00249174 0.0186491)
(-0.0157543 0.00657252 0.0197921)
(-0.0156225 0.00918283 0.0193001)
(-0.0142511 0.0110712 0.0176304)
(-0.0117634 0.0124661 0.0151687)
(-0.00825406 0.0134112 0.0123433)
(-0.00430708 0.0142158 0.00949097)
(0.00501813 0.00979605 0.00877435)
(0.00916723 0.00835381 0.0120249)
(0.0139205 0.0073908 0.0154167)
(0.0180152 0.00654676 0.0180152)
(0.0215591 0.00572749 0.0192702)
(0.0247734 0.00489832 0.0190316)
(0.0277891 0.00397352 0.0174441)
(0.03046 0.00260991 0.0149705)
(0.0311901 4.46367e-05 0.0123019)
(0.0284094 -0.00522964 0.0102981)
(0.0128072 -0.0129578 0.00812741)
(-0.0141526 -0.00644343 0.0147767)
(-0.0182685 0.000542486 0.0213592)
(-0.0205386 0.00366519 0.0245653)
(-0.0197872 0.00525885 0.0254661)
(-0.0175626 0.00623234 0.0245212)
(-0.0143351 0.00691271 0.0221318)
(-0.0104308 0.0073508 0.0187176)
(-0.00607779 0.00741642 0.0149548)
(-0.00312165 0.00708975 0.0118615)
(-0.00278889 0.00395776 -0.0120574)
(-0.00249488 0.00339373 -0.0125808)
(-0.00488468 0.00216637 -0.0123266)
(-0.0046882 0.00174712 -0.0100383)
(-0.00537236 0.00250428 -0.00537236)
(-0.00908608 0.00262476 0.000522567)
(-0.0152536 0.000728727 0.00580763)
(-0.0214869 -0.00250118 0.00958973)
(-0.0251166 -0.00696622 0.0107036)
(-0.0239512 -0.012134 0.00838531)
(-0.0169507 -0.0163299 0.00249578)
(-0.00729108 -0.0151648 -0.00610745)
(0.00129336 -0.0106066 -0.015315)
(0.00794031 -0.00727189 -0.022539)
(0.0130831 -0.00465619 -0.0273904)
(0.0165347 -0.00245664 -0.0297816)
(0.0178555 -0.000361045 -0.0297236)
(0.0167013 0.00204784 -0.027933)
(0.0112101 0.00480529 -0.0255455)
(0.00715957 0.00729735 -0.0240687)
(-0.00335831 0.00775027 -0.0108636)
(-0.00399714 0.0074945 -0.0102528)
(-0.00588432 0.005751 -0.00954812)
(-0.00623072 0.00460816 -0.00822783)
(-0.00621706 0.00508301 -0.00621706)
(-0.00635674 0.00608364 -0.00373009)
(-0.00762181 0.00535266 -0.000560646)
(-0.0103806 0.00156548 0.00335774)
(-0.01326 -0.00584737 0.00653581)