/*--------------------------------*- C++ -*----------------------------------*\
  =========                 |
  \\      /  F ield         | OpenFOAM: The Open Source CFD Toolbox
   \\    /   O peration     | Website:  https://openfoam.org
    \\  /    A nd           | Version:  8
     \\/     M anipulation  |
\*---------------------------------------------------------------------------*/
FoamFile
{
    version     2.0;
    format      ascii;
    class       volScalarField;
    location    "2000";
    object      alphat;
}
// * * * * * * * * * * * * * * * * * * * * * * * * * * * * * * * * * * * * * //

dimensions      [1 -1 -1 0 0 0 0];

internalField   nonuniform List<scalar> 
4000
(
0.000311581
0.000302842
0.00028987
0.000275878
0.000257456
0.000203338
0.000101024
9.3261e-05
9.20023e-05
8.93333e-05
8.68394e-05
8.54402e-05
8.58852e-05
0.000121685
0.000235762
0.00026093
0.000273433
0.000284243
0.000295731
0.000305587
0.000324116
0.00031316
0.000290842
0.000261283
0.000239725
0.000199141
0.000144488
0.000113248
0.000117765
0.000112825
0.000106675
9.9546e-05
0.000103114
0.000154937
0.000212482
0.000232568
0.000251392
0.000279219
0.000302736
0.000317412
0.000331354
0.000322675
0.000298809
0.000258343
0.000225943
0.000195291
0.000165763
0.000134267
0.000122564
0.00012454
0.000117327
0.000106877
0.00011513
0.000149849
0.000184475
0.000202329
0.000237193
0.000282995
0.000310752
0.000323957
0.000335405
0.000330454
0.000311536
0.000283561
0.000237418
0.000215219
0.000196866
0.000169969
0.000141233
0.000132361
0.000145108
0.000158872
0.000176377
0.000197705
0.000215174
0.000239208
0.00026722
0.000296451
0.000318348
0.000327251
0.000338494
0.000338122
0.00032786
0.000311609
0.000293036
0.000277427
0.000262958
0.000248218
0.000235115
0.000229193
0.000237719
0.000246639
0.000255431
0.000264473
0.000274302
0.000286019
0.000300317
0.000315447
0.00032707
0.000329679
0.000341609
0.000346526
0.000344401
0.000338588
0.000331194
0.000323324
0.000314882
0.000305597
0.000296014
0.000287307
0.000288996
0.000294302
0.000300451
0.000306813
0.000313211
0.000319752
0.000326278
0.000332233
0.000335591
0.000332002
0.000345152
0.000355296
0.000360063
0.000361703
0.000361327
0.000358846
0.000354074
0.000347268
0.000338547
0.000327221
0.000324474
0.000328462
0.000333707
0.000338734
0.000342957
0.000345868
0.000347202
0.000346863
0.000343735
0.000334498
0.000349564
0.000365086
0.000375724
0.000382941
0.00038746
0.000388926
0.000387099
0.000381939
0.000373179
0.000359247
0.000352934
0.000356853
0.000362011
0.000366234
0.000368721
0.000368755
0.000366106
0.000360937
0.000352342
0.000337729
0.000355734
0.000377553
0.000393936
0.000405727
0.000413975
0.000418496
0.000419091
0.000415545
0.000407047
0.000390748
0.00038066
0.000385335
0.000390571
0.000394035
0.000394892
0.000392314
0.00038632
0.000377052
0.000363271
0.000342544
0.000364817
0.000392385
0.000413864
0.000429147
0.000440375
0.000448068
0.000452208
0.000452505
0.000447939
0.000434888
0.000421083
0.000424873
0.00042706
0.000426616
0.000423569
0.000417586
0.000408404
0.000395424
0.000376407
0.000350069
0.000302842
0.000305771
0.000296951
0.000281307
0.000261249
0.000219678
0.000115659
0.000112762
0.000107017
0.00010258
9.94397e-05
9.97567e-05
0.00010681
0.000169149
0.000244431
0.000268689
0.000282867
0.00029509
0.000304985
0.000303863
0.00031316
0.000417571
0.000431992
0.000389277
0.000324293
0.000257044
0.000218948
0.000223003
0.00027806
0.000284566
0.00024353
0.000201282
0.000181906
0.000210938
0.000271389
0.000321395
0.000359333
0.000400262
0.0004123
0.000316002
0.000322675
0.000461037
0.000496968
0.00046456
0.000369664
0.000295467
0.000254992
0.000245971
0.000296904
0.000341935
0.000311316
0.000236597
0.000209693
0.000229805
0.000263919
0.000300328
0.000361527
0.000447779
0.000458888
0.000324007
0.000330454
0.000486158
0.000530733
0.000491495
0.000386059
0.000318482
0.000273301
0.000243454
0.000248865
0.000298604
0.00028048
0.000225437
0.000214919
0.000240401
0.000269796
0.000301634
0.000381342
0.000493012
0.000493057
0.000329031
0.000338122
0.000503414
0.0005529
0.000518858
0.00041533
0.000346047
0.000296003
0.00025561
0.000235361
0.000241586
0.000237579
0.000228343
0.000237361
0.000263467
0.000296636
0.000340393
0.000432359
0.000522133
0.000512985
0.000333243
0.000346526
0.000513241
0.000565993
0.000554491
0.000488448
0.00040132
0.000343415
0.000299498
0.000274059
0.000271367
0.000275849
0.000280062
0.000293114
0.000317635
0.000355098
0.000423596
0.00049548
0.000541085
0.000517154
0.000337798
0.000355296
0.000516507
0.000569219
0.000587015
0.000577671
0.000534229
0.000458053
0.000390042
0.000352045
0.000338784
0.000345234
0.000357851
0.000382449
0.00042715
0.000482154
0.00052383
0.000545595
0.000545112
0.000510374
0.000343393
0.000365086
0.000513592
0.000563829
0.000605296
0.000636299
0.000642123
0.000625157
0.000592608
0.000548513
0.000512894
0.000509401
0.000522046
0.000544473
0.000565599
0.000581251
0.000583351
0.000565836
0.000535924
0.000495651
0.000350644
0.000377553
0.000494553
0.000549285
0.00059332
0.000624567
0.000636048
0.0006268
0.000598473
0.000551371
0.000487308
0.000463347
0.000487734
0.000524468
0.000558317
0.000578234
0.000574509
0.000551943
0.000517868
0.00047443
0.000360333
0.000392385
0.000422146
0.000446073
0.00046422
0.000478585
0.000489314
0.000495868
0.000497465
0.000492599
0.000478168
0.00046029
0.000465061
0.000466927
0.000465222
0.000460101
0.000451245
0.000438911
0.000422942
0.000401205
0.000372403
0.00028987
0.000296951
0.000290241
0.000276012
0.000255293
0.000212824
0.000123401
0.000123089
0.000117212
0.000110542
0.00010689
0.000109212
0.000119316
0.00018857
0.000247374
0.000270332
0.000284362
0.000295585
0.000302592
0.000296596
0.000290842
0.000431992
0.000464534
0.000408195
0.000333273
0.000266029
0.00024829
0.000267483
0.000326361
0.000324141
0.000265346
0.000227924
0.000211494
0.000236509
0.000295285
0.000357019
0.000411314
0.00044791
0.000438065
0.000304596
0.000298809
0.000496968
0.000567629
0.000528524
0.000416123
0.0003322
0.000300764
0.000311712
0.00037122
0.000409563
0.000342714
0.000276306
0.000257174
0.000270947
0.00030745
0.000369892
0.000448354
0.000519393
0.000499841
0.000312802
0.000311536
0.000530733
0.000605942
0.00058086
0.000468512
0.000381055
0.000333703
0.000315222
0.000342254
0.000399708
0.000391917
0.00030912
0.000276406
0.000286193
0.000314726
0.000366894
0.000471966
0.000578891
0.000546396
0.00032036
0.00032786
0.0005529
0.000624804
0.000599215
0.000490461
0.000401209
0.000341406
0.000300709
0.00029185
0.000319621
0.00031286
0.000268804
0.000259715
0.00028177
0.000313515
0.000367131
0.000495065
0.000613119
0.00057566
0.000328903
0.000344401
0.000565993
0.000635695
0.000616753
0.000520137
0.000422731
0.000352494
0.000299419
0.00027139
0.000273618
0.000271568
0.000259031
0.000264915
0.000290536
0.000327833
0.000391714
0.00051659
0.000625038
0.000585964
0.000338199
0.000360063
0.000569219
0.000638089
0.000633891
0.000566636
0.000485834
0.000409235
0.000344316
0.000305122
0.000294643
0.000293815
0.000293858
0.000308911
0.000343186
0.00038744
0.000441743
0.000527502
0.000611627
0.000580225
0.000348187
0.000375724
0.000563829
0.000644343
0.000679777
0.000666974
0.0006196
0.000556334
0.000486921
0.000427628
0.00038889
0.000376619
0.000388287
0.000419939
0.000467347
0.000513693
0.000549231
0.000588279
0.000600724
0.000558766
0.000359854
0.000393936
0.000549285
0.000681273
0.00080159
0.000872385
0.000896261
0.000869719
0.000804262
0.00070691
0.00059285
0.000555583
0.000611396
0.000687757
0.000758783
0.000800865
0.000786815
0.000737176
0.0006444
0.000534716
0.000374346
0.000413864
0.000446073
0.000472042
0.000492577
0.000509611
0.000523029
0.000531928
0.000535013
0.000530255
0.00051402
0.000492647
0.00049862
0.000500211
0.000497333
0.000490227
0.000478625
0.000463514
0.000445124
0.000421322
0.000390379
0.000275878
0.000281307
0.000276012
0.000262556
0.00023913
0.000181377
0.000132322
0.000128953
0.000125911
0.000118116
0.000114575
0.000119666
0.000133226
0.000192481
0.000243846
0.000265911
0.000279356
0.000288736
0.000293259
0.000285415
0.000261283
0.000389277
0.000408195
0.000360778
0.000300621
0.00025643
0.000257344
0.000296868
0.000369547
0.000354566
0.000288224
0.000247394
0.000228816
0.000245396
0.00029605
0.000356241
0.000415747
0.000451318
0.000428156
0.000285513
0.000258343
0.00046456
0.000528524
0.000477155
0.000385088
0.000332407
0.000325132
0.000351986
0.000426823
0.000451021
0.00036115
0.000301819
0.000284051
0.000292428
0.000327383
0.000400324
0.00048672
0.000541252
0.000502246
0.000293232
0.000283561
0.000491495
0.00058086
0.000555306
0.000463628
0.000398111
0.000369447
0.000369365
0.000413429
0.000469836
0.000434242
0.000354646
0.000321255
0.000323033
0.000351755
0.000421146
0.000529284
0.000609359
0.00056323
0.000305652
0.000311609
0.000518858
0.000599215
0.000589565
0.000508339
0.000435596
0.000387199
0.000358849
0.000368489
0.000423132
0.000427245
0.000344921
0.000315308
0.000326854
0.000357958
0.000422937
0.000548114
0.000650115
0.000609193
0.000321129
0.000338588
0.000554491
0.000616753
0.000608375
0.000536669
0.000458516
0.000395549
0.000347424
0.000328748
0.000353096
0.000360254
0.000314792
0.000302206
0.000322723
0.00035763
0.000420771
0.000549562
0.000668347
0.000637512
0.000335874
0.000361703
0.000587015
0.000633891
0.000629653
0.000575283
0.000505836
0.000438823
0.000378879
0.000340967
0.000337671
0.000340058
0.00032178
0.000328522
0.000360004
0.000393562
0.000440829
0.000547531
0.000665215
0.000643034
0.000350315
0.000382941
0.000605296
0.000679777
0.000712262
0.000688825
0.000640829
0.000580713
0.000511942
0.000445742
0.000394204
0.000377972
0.00039313
0.000439184
0.000498432
0.000538325
0.000561824
0.000620461
0.000665196
0.000610765
0.000366019
0.000405727
0.00059332
0.00080159
0.000969916
0.00100523
0.00102321
0.00100965
0.000948881
0.000840183
0.00069383
0.000639567
0.000721361
0.000826009
0.000907508
0.000937664
0.000907444
0.000880814
0.000766274
0.000585069
0.000384295
0.000429147
0.00046422
0.000492577
0.000515866
0.000536514
0.000553585
0.000565749
0.00057154
0.000568902
0.000554646
0.000529846
0.000533906
0.000533468
0.000528155
0.000517926
0.000502539
0.00048373
0.000462562
0.000436332
0.000402889
0.000257456
0.000261249
0.000255293
0.00023913
0.000209811
0.000148893
0.000137725
0.000133508
0.000133824
0.0001266
0.000122635
0.00013024
0.000143399
0.00018656
0.000233188
0.000255295
0.000268848
0.000276824
0.000279193
0.000271723
0.000239725
0.000324293
0.000333273
0.000300621
0.000262629
0.00025693
0.000266881
0.000313945
0.000405565
0.000390302
0.000310094
0.000264859
0.000242061
0.000246119
0.000280656
0.000328095
0.000376829
0.000409155
0.000387383
0.000259106
0.000225943
0.000369664
0.000416123
0.000385088
0.000341241
0.000328669
0.000336783
0.000373533
0.000470015
0.000480658
0.000380844
0.00032308
0.000302555
0.000303213
0.000324418
0.000383743
0.000461316
0.000507018
0.000464494
0.000265506
0.000237418
0.000386059
0.000468512
0.000463628
0.000420638
0.000394583
0.000390369
0.000405943
0.000466153
0.000522887
0.000453965
0.000377474
0.00034872
0.000346614
0.000367041
0.00042975
0.000523545
0.000584491
0.000531486
0.00028743
0.000293036
0.00041533
0.000490461
0.000508339
0.000475088
0.000439425
0.000414388
0.000404072
0.000433696
0.000504266
0.000489052
0.000401862
0.000364437
0.000367686
0.00039352
0.000455435
0.00056136
0.00064144
0.000604036
0.000311374
0.000331194
0.000488448
0.000520137
0.000536669
0.000510999
0.00046936
0.000428189
0.000396049
0.000397001
0.000451732
0.000466333
0.000387316
0.000358529
0.000371933
0.000404184
0.000463602
0.000574133
0.000679551
0.000672145
0.000331994
0.000361327
0.000577671
0.000566636
0.000575283
0.000558625
0.000519998
0.000472099
0.000425043
0.000399661
0.000420872
0.000442738
0.000396213
0.000388851
0.000410986
0.000438876
0.000483021
0.00058008
0.000698944
0.000705221
0.000350485
0.00038746
0.000636299
0.000666974
0.000688825
0.000678016
0.000644168
0.000595022
0.000532584
0.000465104
0.000412181
0.000402337
0.000420536
0.000478089
0.000537298
0.000568565
0.000587768
0.000654179
0.000729806
0.000659751
0.000369582
0.000413975
0.000624567
0.000872385
0.00100523
0.00108143
0.0011275
0.00112572
0.00105496
0.000908657
0.000715279
0.000655368
0.000781887
0.000927049
0.00102354
0.00104535
0.000990568
0.000932088
0.000848018
0.000620864
0.000390666
0.000440375
0.000478585
0.000509611
0.000536514
0.000561497
0.000582363
0.000598105
0.000607397
0.000608294
0.00059802
0.000570477
0.000571104
0.00056697
0.00055792
0.00054388
0.000524603
0.000501548
0.000476837
0.000447894
0.000411725
0.000203338
0.000219678
0.000212824
0.000181377
0.000148893
0.000143569
0.000139394
0.000135572
0.000138253
0.000134638
0.000129251
0.000137019
0.000148097
0.000172198
0.000210998
0.000235417
0.000251396
0.000260161
0.000261853
0.000255836
0.000199141
0.000257044
0.000266029
0.00025643
0.00025693
0.000260744
0.000278612
0.000324671
0.000420849
0.000420856
0.000331049
0.00028208
0.000256861
0.000248766
0.000260109
0.000289348
0.000322398
0.000342145
0.000324171
0.000234992
0.000195291
0.000295467
0.0003322
0.000332407
0.000328669
0.000333649
0.000345645
0.000385694
0.000488689
0.000497918
0.000397604
0.00034136
0.000319482
0.000314133
0.000315246
0.000343585
0.00038936
0.000414842
0.000368191
0.000225783
0.000215219
0.000318482
0.000381055
0.000398111
0.000394583
0.000396518
0.000404508
0.000425515
0.000495468
0.000537643
0.000461922
0.000394759
0.000368383
0.000363203
0.000368358
0.000401278
0.000454887
0.000478558
0.000418453
0.000265761
0.000277427
0.000346047
0.000401209
0.000435596
0.000439425
0.000434004
0.000429286
0.000434676
0.000478849
0.000541494
0.000510138
0.00043629
0.000399076
0.000395323
0.000409511
0.000448018
0.00051081
0.000548176
0.000510926
0.000299523
0.000323324
0.00040132
0.000422731
0.000458516
0.00046936
0.000460149
0.000442742
0.000430311
0.000451928
0.000512301
0.000516304
0.000443999
0.000406771
0.000411215
0.000435822
0.000480237
0.000554572
0.000623959
0.000644137
0.000326298
0.000358846
0.000534229
0.000485834
0.000505836
0.000519998
0.000509962
0.000483382
0.000453961
0.000448086
0.000487709
0.000511924
0.00046244
0.000442518
0.00045446
0.000478915
0.000518712
0.000592793
0.00068639
0.000744879
0.000348575
0.000388926
0.000642123
0.0006196
0.000640829
0.000644168
0.000627836
0.00059202
0.000536963
0.00047274
0.000429532
0.000434101
0.000450953
0.000507125
0.000561433
0.000590894
0.000614092
0.000675018
0.000755014
0.000693686
0.000370246
0.000418496
0.000636048
0.000896261
0.00102321
0.0011275
0.0011884
0.00118103
0.00108392
0.000889868
0.000670644
0.00062001
0.000782453
0.000962333
0.00107912
0.00110562
0.00104635
0.000966509
0.000891374
0.000634772
0.000393194
0.000448068
0.000489314
0.000523029
0.000553585
0.000582363
0.000607046
0.000626985
0.000641329
0.000648715
0.000646787
0.000617061
0.000610185
0.00059928
0.000584744
0.000566127
0.000542927
0.000516022
0.000487644
0.000456079
0.000417332
0.000101024
0.000115659
0.000123401
0.000132322
0.000137725
0.000139394
0.000137245
0.000135732
0.000141895
0.000144261
0.000136058
0.00014076
0.000148744
0.000160115
0.000171792
0.00018736
0.000215969
0.000230941
0.000229657
0.000211329
0.000144488
0.000218948
0.00024829
0.000257344
0.000266881
0.000278612
0.0002956
0.000336699
0.0004311
0.000450528
0.000355215
0.000301618
0.000278957
0.000264671
0.000255936
0.000260418
0.000272053
0.000280375
0.000265482
0.000204292
0.000165763
0.000254992
0.000300764
0.000325132
0.000336783
0.000345645
0.000358296
0.000396987
0.000492483
0.000479724
0.000395153
0.000358572
0.000340476
0.000331309
0.000322803
0.000323702
0.000333685
0.000336082
0.000301345
0.000200349
0.000196866
0.000273301
0.000333703
0.000369447
0.000390369
0.000404508
0.000413526
0.000435692
0.000498178
0.00047505
0.000422041
0.000405773
0.000389052
0.000381589
0.000376572
0.000382273
0.000395465
0.000390726
0.000344172
0.000247384
0.000262958
0.000296003
0.000341406
0.000387199
0.000414388
0.000429286
0.000439168
0.00045438
0.000491249
0.000465579
0.000442232
0.000447766
0.000427058
0.000418471
0.000419393
0.000431967
0.000450256
0.000447129
0.000409846
0.000287696
0.000314882
0.000343415
0.000352494
0.000395549
0.000428189
0.000442742
0.000446393
0.000452374
0.000474756
0.00044882
0.00044567
0.000463338
0.00044482
0.000440116
0.000452156
0.000475219
0.000507348
0.000531133
0.000546624
0.000318672
0.000354074
0.000458053
0.000409235
0.000438823
0.000472099
0.000483382
0.000476944
0.00046773
0.000474351
0.000455744
0.000468338
0.000492667
0.000482106
0.000484603
0.000502355
0.000531337
0.000575338
0.000633339
0.000732772
0.00034404
0.000387099
0.000625157
0.000556334
0.000580713
0.000595022
0.00059202
0.00056593
0.000518131
0.000466579
0.000436106
0.000438175
0.000465009
0.000511125
0.000560229
0.000593249
0.000621087
0.0006718
0.000733332
0.000695652
0.000367553
0.000419091
0.0006268
0.000869719
0.00100965
0.00112572
0.00118103
0.00114497
0.00100606
0.000805499
0.000661988
0.000612507
0.000724825
0.000912915
0.00105774
0.001106
0.00105905
0.000970959
0.000875929
0.000624227
0.000391977
0.000452208
0.000495868
0.000531928
0.000565749
0.000598105
0.000626985
0.000652279
0.000674355
0.000693481
0.000707482
0.000675434
0.00065321
0.000630825
0.000608399
0.000584203
0.000556758
0.000526199
0.000494449
0.00046059
0.000419805
9.3261e-05
0.000112762
0.000123089
0.000128953
0.000133508
0.000135572
0.000135732
0.000137536
0.000147346
0.000155553
0.000145409
0.000145301
0.000148815
0.000153183
0.000152585
0.000150761
0.000157208
0.000175755
0.000169188
0.000129004
0.000113248
0.000223003
0.000267483
0.000296868
0.000313945
0.000324671
0.000336699
0.000370583
0.000436933
0.000410194
0.000335108
0.000331825
0.000323446
0.000309159
0.00028855
0.00027773
0.000268568
0.000246387
0.000230032
0.000170107
0.000134267
0.000245971
0.000311712
0.000351986
0.000373533
0.000385694
0.000396987
0.000423989
0.000449035
0.000330972
0.000279745
0.000355139
0.000379461
0.000370354
0.000351933
0.000340263
0.000326425
0.000306128
0.000271051
0.000185146
0.000169969
0.000243454
0.000315222
0.000369365
0.000405943
0.000425515
0.000435692
0.000447438
0.000418591
0.000321712
0.000283777
0.000360274
0.000415006
0.000412093
0.000398765
0.000385539
0.00037219
0.000346361
0.000302492
0.000234067
0.000248218
0.00025561
0.000300709
0.000358849
0.000404072
0.000434676
0.00045438
0.000460956
0.000399832
0.000359816
0.000328294
0.000371601
0.000446912
0.000446177
0.000432703
0.000422987
0.000410246
0.000382732
0.000350131
0.000277338
0.000305597
0.000299498
0.000299419
0.000347424
0.000396049
0.000430311
0.000452374
0.000457518
0.000385628
0.000412714
0.000379117
0.000373141
0.000461523
0.000467507
0.00046255
0.000462486
0.000460919
0.000453013
0.000462918
0.00031013
0.000347268
0.000390042
0.000344316
0.000378879
0.000425043
0.000453961
0.00046773
0.000469752
0.000411085
0.000472469
0.000447815
0.000419087
0.000498505
0.000507915
0.000513241
0.000525235
0.000540393
0.000565948
0.000668301
0.000336879
0.000381939
0.000592608
0.000486921
0.000511942
0.000532584
0.000536963
0.000518131
0.0004832
0.000453003
0.000533603
0.000497648
0.000445461
0.000494207
0.000535754
0.000571966
0.000602541
0.000642238
0.000678842
0.000670001
0.000361378
0.000415545
0.000598473
0.000804262
0.000948881
0.00105496
0.00108392
0.00100606
0.000858607
0.000767342
0.000832955
0.000773024
0.000682138
0.000787365
0.000948935
0.00103284
0.00101151
0.000929025
0.000819633
0.000591302
0.000386829
0.000452505
0.000497465
0.000535013
0.00057154
0.000607397
0.000641329
0.000674355
0.000708961
0.000747191
0.000786183
0.000751587
0.000703471
0.000662754
0.000628779
0.000597415
0.000565118
0.000530896
0.000496241
0.000460924
0.000419026
9.20023e-05
0.000107017
0.000117212
0.000125911
0.000133824
0.000138253
0.000141895
0.000147346
0.000156548
0.000163677
0.000157711
0.000158399
0.000157554
0.000153631
0.000148337
0.000145026
0.000145086
0.000146032
0.000138382
0.000125739
0.000117765
0.00027806
0.000326361
0.000369547
0.000405565
0.000420849
0.0004311
0.000436933
0.000381739
0.000424309
0.000379253
0.000357558
0.000413292
0.000399491
0.000366078
0.000330995
0.000304465
0.000269073
0.000240795
0.000150653
0.000122564
0.000296904
0.00037122
0.000426823
0.000470015
0.000488689
0.000492483
0.000449035
0.000330491
0.000537075
0.000492158
0.000318278
0.000416759
0.00045325
0.000419003
0.000384384
0.000353288
0.000312065
0.00026018
0.000171779
0.000141233
0.000248865
0.000342254
0.000413429
0.000466153
0.000495468
0.000498178
0.000418591
0.000344356
0.000708033
0.000664557
0.000331514
0.000385848
0.000464341
0.000436614
0.00040339
0.000368203
0.00032222
0.000271276
0.000222023
0.000235115
0.000235361
0.00029185
0.000368489
0.000433696
0.000478849
0.000491249
0.000399832
0.000405489
0.000907477
0.000857859
0.00038813
0.000371891
0.000475136
0.000451832
0.000418928
0.000381527
0.000336338
0.000306197
0.00026823
0.000296014
0.000274059
0.00027139
0.000328748
0.000397001
0.000451928
0.000474756
0.000385628
0.000481574
0.00110012
0.00103376
0.000453299
0.000366506
0.000486959
0.000472376
0.000446261
0.000416923
0.000388667
0.00040069
0.000301499
0.000338547
0.000352045
0.000305122
0.000340967
0.000399661
0.000448086
0.000474351
0.000411085
0.000561804
0.00124975
0.00116081
0.00053203
0.000401738
0.000519732
0.000516897
0.000505419
0.000493044
0.000493694
0.000590093
0.000328106
0.000373179
0.000548513
0.000427628
0.000445742
0.000465104
0.00047274
0.000466579
0.000453003
0.000647094
0.00134371
0.00122292
0.000584508
0.000440841
0.000501559
0.000533783
0.000561594
0.000589266
0.000605792
0.000634972
0.000352314
0.000407047
0.000551371
0.00070691
0.000840183
0.000908657
0.000889868
0.000805499
0.000767342
0.000936928
0.00129
0.00119929
0.000820469
0.000681311
0.000782012
0.000894704
0.000905133
0.000840833
0.000728567
0.000540347
0.000377683
0.000447939
0.000492599
0.000530255
0.000568902
0.000608294
0.000648715
0.000693481
0.000747191
0.000812368
0.000879202
0.000840409
0.000762729
0.000696359
0.000645912
0.000605114
0.000567048
0.000529018
0.000491733
0.000456191
0.000414399
8.93333e-05
0.00010258
0.000110542
0.000118116
0.0001266
0.000134638
0.000144261
0.000155553
0.000163677
0.000242139
0.000253783
0.000175853
0.00017161
0.000162212
0.000155078
0.000149853
0.000145801
0.000141889
0.000133573
0.000119235
0.000112825
0.000284566
0.000324141
0.000354566
0.000390302
0.000420856
0.000450528
0.000410194
0.000424309
0.000288904
0.000285975
0.000435044
0.000366647
0.000407033
0.000403449
0.000390244
0.000354926
0.000308486
0.000264837
0.000144208
0.00012454
0.000341935
0.000409563
0.000451021
0.000480658
0.000497918
0.000479724
0.000330972
0.000537075
0.000423839
0.000412905
0.000577941
0.0003444
0.000467474
0.000477964
0.000448896
0.000395984
0.00033563
0.000260125
0.000158315
0.000132361
0.000298604
0.000399708
0.000469836
0.000522887
0.000537643
0.00047505
0.000321712
0.000708033
0.000563573
0.00053733
0.000722063
0.000321474
0.000479102
0.000487032
0.000434032
0.000375055
0.000309951
0.000251887
0.000216068
0.000229193
0.000241586
0.000319621
0.000423132
0.000504266
0.000541494
0.000465579
0.000359816
0.000907477
0.000713406
0.000665386
0.000864364
0.000314864
0.000467012
0.000478151
0.000421485
0.000361691
0.000305277
0.000282429
0.000262709
0.000287307
0.000271367
0.000273618
0.000353096
0.000451732
0.000512301
0.00044882
0.000412714
0.00110012
0.0008696
0.00079672
0.000996011
0.000324776
0.000460569
0.000484095
0.000432
0.00037948
0.000343613
0.000369561
0.00029478
0.000327221
0.000338784
0.000294643
0.000337671
0.000420872
0.000487709
0.000455744
0.000472469
0.00124975
0.00101656
0.00092182
0.00109142
0.00036491
0.000486124
0.000519043
0.000481293
0.000443961
0.000434877
0.000543858
0.00031995
0.000359247
0.000512894
0.00038889
0.000394204
0.000412181
0.000429532
0.000436106
0.000533603
0.00134371
0.0011283
0.00102148
0.00111177
0.000408923
0.000467093
0.000502023
0.000516213
0.000528588
0.000535801
0.000609592
0.000342517
0.000390748
0.000487308
0.00059285
0.00069383
0.000715279
0.000670644
0.000661988
0.000832955
0.00129
0.00121047
0.00109713
0.00110275
0.000696469
0.000660072
0.000768983
0.000786522
0.000735867
0.000632151
0.000489427
0.000366121
0.000434888
0.000478168
0.00051402
0.000554646
0.00059802
0.000646787
0.000707482
0.000786183
0.000879202
0.00090301
0.000847218
0.000817868
0.000729364
0.00065944
0.000607431
0.000562404
0.000520009
0.000480039
0.000445816
0.000405297
8.68394e-05
9.94397e-05
0.00010689
0.000114575
0.000122635
0.000129251
0.000136058
0.000145409
0.000157711
0.000253783
0.000336622
0.000193198
0.000181293
0.000168745
0.00016077
0.000156226
0.000151187
0.000143237
0.000131552
0.000117108
0.000106675
0.00024353
0.000265346
0.000288224
0.000310094
0.000331049
0.000355215
0.000335108
0.000379253
0.000285975
0.000329813
0.000359172
0.000297483
0.000304174
0.000313414
0.000327859
0.000342601
0.000327177
0.000276013
0.000139998
0.000117327
0.000311316
0.000342714
0.00036115
0.000380844
0.000397604
0.000395153
0.000279745
0.000492158
0.000412905
0.000452336
0.000431728
0.000336066
0.000385987
0.000404697
0.000424023
0.000421508
0.000355397
0.000259384
0.000154716
0.000145108
0.00028048
0.000391917
0.000434242
0.000453965
0.000461922
0.000422041
0.000283777
0.000664557
0.00053733
0.000584585
0.000506294
0.000335052
0.000435262
0.000451126
0.000439388
0.000381898
0.000303959
0.000244747
0.000223251
0.000237719
0.000237579
0.00031286
0.000427245
0.000489052
0.000510138
0.000442232
0.000328294
0.000857859
0.000665386
0.000730852
0.000585191
0.000320131
0.000455271
0.000459809
0.000419603
0.000348392
0.000288497
0.000278937
0.000267491
0.000288996
0.000275849
0.000271568
0.000360254
0.000466333
0.000516304
0.00044567
0.000379117
0.00103376
0.00079672
0.00088858
0.000663966
0.000310841
0.000468694
0.000470208
0.000420285
0.00035385
0.000321492
0.000370602
0.000298054
0.000324474
0.000345234
0.000293815
0.000340058
0.000442738
0.000511924
0.000468338
0.000447815
0.00116081
0.00092182
0.00104441
0.000729199
0.000340191
0.000494851
0.000501281
0.000461229
0.000410109
0.000405725
0.000550259
0.000322453
0.000352934
0.000509401
0.000376619
0.000377972
0.000402337
0.000434101
0.000438175
0.000497648
0.00122292
0.00102148
0.00118427
0.00074709
0.000406176
0.000468024
0.000487065
0.000487808
0.000488442
0.000498076
0.000579373
0.000344816
0.00038066
0.000463347
0.000555583
0.000639567
0.000655368
0.00062001
0.000612507
0.000773024
0.00119929
0.00109713
0.00124873
0.000901501
0.00066676
0.000734708
0.00080975
0.0007844
0.000712166
0.00060983
0.000478612
0.000369855
0.000421083
0.00046029
0.000492647
0.000529846
0.000570477
0.000617061
0.000675434
0.000751587
0.000840409
0.000847218
0.0009268
0.000821545
0.00073138
0.000666873
0.000616004
0.000569893
0.000526364
0.00048632
0.000451478
0.000410466
8.54402e-05
9.97567e-05
0.000109212
0.000119666
0.00013024
0.000137019
0.00014076
0.000145301
0.000158399
0.000175853
0.000193198
0.000202347
0.000204935
0.000201013
0.000193714
0.000183911
0.00017121
0.000153568
0.000136767
0.000119705
9.9546e-05
0.000201282
0.000227924
0.000247394
0.000264859
0.00028208
0.000301618
0.000331825
0.000357558
0.000435044
0.000359172
0.00027512
0.000271575
0.000269837
0.000270722
0.000273024
0.000274896
0.000275335
0.000259639
0.000135373
0.000106877
0.000236597
0.000276306
0.000301819
0.00032308
0.00034136
0.000358572
0.000355139
0.000318278
0.000577941
0.000431728
0.000302171
0.000327872
0.000331881
0.000336435
0.000339555
0.000336037
0.00031586
0.000239548
0.000161453
0.000158872
0.000225437
0.00030912
0.000354646
0.000377474
0.000394759
0.000405773
0.000360274
0.000331514
0.000722063
0.000506294
0.000301983
0.000371055
0.000380018
0.000380275
0.000368272
0.00033663
0.000280785
0.000238694
0.000232663
0.000246639
0.000228343
0.000268804
0.000344921
0.000401862
0.00043629
0.000447766
0.000371601
0.00038813
0.000864364
0.000585191
0.00029472
0.00040037
0.000414863
0.000406111
0.000374681
0.0003223
0.000275959
0.000282531
0.000274513
0.000294302
0.000280062
0.000259031
0.000314792
0.000387316
0.000443999
0.000463338
0.000373141
0.000453299
0.000996011
0.000663966
0.000293532
0.000420227
0.000444261
0.000430316
0.00039019
0.000335827
0.000316071
0.000385944
0.000304368
0.000328462
0.000357851
0.000293858
0.00032178
0.000396213
0.00046244
0.000492667
0.000419087
0.00053203
0.00109142
0.000729199
0.000327184
0.000446203
0.000477485
0.000469841
0.000438737
0.000397264
0.000402925
0.000582717
0.00032885
0.000356853
0.000522046
0.000388287
0.00039313
0.000420536
0.000450953
0.000465009
0.000445461
0.000584508
0.00111177
0.00074709
0.000422718
0.000464656
0.000485242
0.00049359
0.000487979
0.000484089
0.000500733
0.000566815
0.000351805
0.000385335
0.000487734
0.000611396
0.000721361
0.000781887
0.000782453
0.000724825
0.000682138
0.000820469
0.00110275
0.000901501
0.000716802
0.000884893
0.000963765
0.000935185
0.000865835
0.000774561
0.000661327
0.000508091
0.000378908
0.000424873
0.000465061
0.00049862
0.000533906
0.000571104
0.000610185
0.00065321
0.000703471
0.000762729
0.000817868
0.000821545
0.000757331
0.000705825
0.000659852
0.000615827
0.000573571
0.000533113
0.000495395
0.000459583
0.000417798
8.58852e-05
0.00010681
0.000119316
0.000133226
0.000143399
0.000148097
0.000148744
0.000148815
0.000157554
0.00017161
0.000181293
0.000204935
0.000222986
0.000231222
0.000235306
0.000236164
0.000233134
0.000224316
0.000204292
0.000170902
0.000103114
0.000181906
0.000211494
0.000228816
0.000242061
0.000256861
0.000278957
0.000323446
0.000413292
0.000366647
0.000297483
0.000271575
0.000279992
0.000290719
0.000296106
0.000296459
0.000289334
0.000270741
0.000234373
0.000151613
0.00011513
0.000209693
0.000257174
0.000284051
0.000302555
0.000319482
0.000340476
0.000379461
0.000416759
0.0003444
0.000336066
0.000327872
0.000325005
0.00033212
0.000334921
0.000329162
0.000312034
0.000280917
0.00023429
0.000180553
0.000176377
0.000214919
0.000276406
0.000321255
0.00034872
0.000368383
0.000389052
0.000415006
0.000385848
0.000321474