/*--------------------------------*- C++ -*----------------------------------*\
  =========                 |
  \\      /  F ield         | OpenFOAM: The Open Source CFD Toolbox
   \\    /   O peration     | Website:  https://openfoam.org
    \\  /    A nd           | Version:  8
     \\/     M anipulation  |
\*---------------------------------------------------------------------------*/
FoamFile
{
    version     2.0;
    format      ascii;
    class       volScalarField;
    location    "2000";
    object      epsilon;
}
// * * * * * * * * * * * * * * * * * * * * * * * * * * * * * * * * * * * * * //

dimensions      [0 2 -3 0 0 0 0];

internalField   nonuniform List<scalar> 
4000
(
2.75001e-07
2.52304e-07
2.21202e-07
1.90671e-07
1.54809e-07
7.56916e-08
9.31354e-09
7.40549e-09
7.10999e-09
6.51133e-09
5.99516e-09
5.71539e-09
5.78692e-09
1.54627e-08
1.18055e-07
1.60924e-07
1.85444e-07
2.08342e-07
2.34751e-07
2.59118e-07
3.09351e-07
2.78962e-07
2.23376e-07
1.61914e-07
1.25056e-07
7.1228e-08
2.68338e-08
1.33117e-08
1.49403e-08
1.31288e-08
1.11156e-08
9.06369e-09
9.90987e-09
3.32454e-08
8.62667e-08
1.13964e-07
1.43889e-07
1.9734e-07
2.51873e-07
2.90515e-07
3.30549e-07
3.05171e-07
2.42224e-07
1.56247e-07
1.04769e-07
6.74633e-08
4.1138e-08
2.1738e-08
1.68816e-08
1.7657e-08
1.47311e-08
1.11315e-08
1.38043e-08
3.03334e-08
5.6391e-08
7.50689e-08
1.20244e-07
2.05506e-07
2.72544e-07
3.08968e-07
3.42833e-07
3.27796e-07
2.74556e-07
2.06783e-07
1.21381e-07
9.04768e-08
6.9136e-08
4.43367e-08
2.54329e-08
2.08409e-08
2.74313e-08
3.61364e-08
4.95413e-08
7.01941e-08
9.08828e-08
1.24343e-07
1.73296e-07
2.36684e-07
2.93223e-07
3.18587e-07
3.52412e-07
3.51176e-07
3.20089e-07
2.74729e-07
2.28412e-07
1.93812e-07
1.65004e-07
1.38723e-07
1.17782e-07
1.08998e-07
1.21853e-07
1.3634e-07
1.51636e-07
1.68453e-07
1.87994e-07
2.13059e-07
2.46515e-07
2.85575e-07
3.18239e-07
3.25844e-07
3.62252e-07
3.7806e-07
3.71121e-07
3.52631e-07
3.30026e-07
3.07077e-07
2.83664e-07
2.59307e-07
2.35656e-07
2.15493e-07
2.1968e-07
2.32184e-07
2.47153e-07
2.63249e-07
2.80068e-07
2.97916e-07
3.16414e-07
3.3391e-07
3.43963e-07
3.32877e-07
3.73669e-07
4.07556e-07
4.24198e-07
4.30073e-07
4.28796e-07
4.20091e-07
4.03629e-07
3.80872e-07
3.5298e-07
3.1887e-07
3.11405e-07
3.23103e-07
3.38851e-07
3.5441e-07
3.67817e-07
3.77197e-07
3.81464e-07
3.80179e-07
3.6977e-07
3.4051e-07
3.88219e-07
4.42248e-07
4.82108e-07
5.10525e-07
5.28931e-07
5.3509e-07
5.27709e-07
5.07024e-07
4.73113e-07
4.22314e-07
4.01091e-07
4.1454e-07
4.32713e-07
4.48028e-07
4.57209e-07
4.5728e-07
4.47365e-07
4.28491e-07
3.98357e-07
3.50545e-07
4.09193e-07
4.89211e-07
5.55801e-07
6.07371e-07
6.45358e-07
6.66944e-07
6.69987e-07
6.53333e-07
6.14317e-07
5.43711e-07
5.03525e-07
5.22076e-07
5.43516e-07
5.5811e-07
5.61779e-07
5.50776e-07
5.25733e-07
4.88568e-07
4.36689e-07
3.65825e-07
4.41416e-07
5.49351e-07
6.44766e-07
7.19079e-07
7.77244e-07
8.18934e-07
8.42083e-07
8.43981e-07
8.18961e-07
7.49667e-07
6.81596e-07
6.99743e-07
7.10395e-07
7.08127e-07
6.93044e-07
6.6404e-07
6.21086e-07
5.63571e-07
4.85895e-07
3.90546e-07
2.52304e-07
2.59733e-07
2.37856e-07
2.0212e-07
1.61732e-07
9.55534e-08
1.40035e-08
1.30369e-08
1.11952e-08
9.84568e-09
8.99251e-09
9.07735e-09
1.11272e-08
4.27926e-08
1.31817e-07
1.75789e-07
2.05363e-07
2.33253e-07
2.57732e-07
2.54956e-07
2.78962e-07
2.68278e-07
2.26801e-07
1.64027e-07
1.29142e-07
8.32125e-08
4.59191e-08
2.39472e-08
1.52743e-08
1.24763e-08
1.19024e-08
1.52859e-08
2.58488e-08
5.12716e-08
1.01179e-07
1.26238e-07
1.47924e-07
2.01992e-07
2.62507e-07
2.86902e-07
3.05171e-07
2.94459e-07
2.67535e-07
2.008e-07
1.27008e-07
8.09771e-08
5.14042e-08
3.39783e-08
2.45728e-08
1.88275e-08
1.58661e-08
1.82352e-08
2.75139e-08
4.51361e-08
7.21027e-08
8.84391e-08
1.32613e-07
2.23821e-07
2.85366e-07
3.09312e-07
3.27796e-07
3.19517e-07
3.0376e-07
2.40413e-07
1.39143e-07
9.18014e-08
6.38172e-08
4.35714e-08
2.96878e-08
2.36835e-08
2.18415e-08
2.38951e-08
3.61656e-08
5.38838e-08
7.39365e-08
9.77548e-08
1.63811e-07
2.66094e-07
3.12409e-07
3.23938e-07
3.51176e-07
3.45055e-07
3.34029e-07
2.84051e-07
1.95444e-07
1.43098e-07
1.08388e-07
8.05082e-08
6.17643e-08
5.5817e-08
6.03128e-08
6.65866e-08
7.86608e-08
9.70976e-08
1.1999e-07
1.53481e-07
2.22317e-07
2.97461e-07
3.32765e-07
3.36548e-07
3.7806e-07
3.66092e-07
3.53655e-07
3.22226e-07
2.74463e-07
2.12427e-07
1.69927e-07
1.37111e-07
1.14962e-07
1.06483e-07
1.11535e-07
1.19187e-07
1.31552e-07
1.49944e-07
1.76982e-07
2.24315e-07
2.73672e-07
3.14097e-07
3.38504e-07
3.50531e-07
4.07556e-07
3.85524e-07
3.672e-07
3.48808e-07
3.3308e-07
2.98955e-07
2.43608e-07
1.95765e-07
1.66439e-07
1.51956e-07
1.54297e-07
1.61756e-07
1.76862e-07
2.04145e-07
2.39e-07
2.7184e-07
2.9695e-07
3.18566e-07
3.42111e-07
3.68294e-07
4.42248e-07
4.20036e-07
4.06343e-07
4.0051e-07
4.09824e-07
4.09131e-07
3.9089e-07
3.57273e-07
3.08588e-07
2.54647e-07
2.49421e-07
2.71403e-07
2.96261e-07
3.16082e-07
3.30486e-07
3.36954e-07
3.35085e-07
3.43074e-07
3.65567e-07
3.92171e-07
4.89211e-07
5.17156e-07
5.45935e-07
5.71616e-07
5.9895e-07
6.15727e-07
6.10464e-07
5.78379e-07
5.12158e-07
4.05739e-07
3.65743e-07
4.07579e-07
4.48784e-07
4.79172e-07
4.9353e-07
4.86937e-07
4.70563e-07
4.5783e-07
4.46882e-07
4.25692e-07
5.49351e-07
6.84195e-07
8.07476e-07
9.10378e-07
9.97861e-07
1.06682e-06
1.11057e-06
1.12161e-06
1.08929e-06
9.9656e-07
8.90151e-07
9.17532e-07
9.28425e-07
9.18311e-07
8.88345e-07
8.37972e-07
7.70919e-07
6.89522e-07
5.88264e-07
4.70068e-07
2.21202e-07
2.37856e-07
2.22009e-07
1.90859e-07
1.5083e-07
8.65236e-08
1.71806e-08
1.69449e-08
1.46953e-08
1.2297e-08
1.11552e-08
1.19198e-08
1.55423e-08
5.98093e-08
1.36813e-07
1.79098e-07
2.08697e-07
2.34552e-07
2.51877e-07
2.37244e-07
2.23376e-07
2.26801e-07
2.00443e-07
1.54706e-07
1.23703e-07
7.9642e-08
4.895e-08
2.92365e-08
1.99647e-08
1.64237e-08
1.66559e-08
2.16635e-08
3.33037e-08
6.00361e-08
1.05657e-07
1.2821e-07
1.46994e-07
1.93212e-07
2.41566e-07
2.57241e-07
2.42224e-07
2.67535e-07
2.56776e-07
1.98292e-07
1.29779e-07
8.32645e-08
5.61173e-08
4.09743e-08
3.0743e-08
2.31358e-08
2.0669e-08
2.5134e-08
3.56503e-08
5.38591e-08
7.9256e-08
1.00082e-07
1.42278e-07
2.16566e-07
2.67738e-07
2.78668e-07
2.74556e-07
3.0376e-07
2.83841e-07
2.27435e-07
1.43267e-07
9.26664e-08
6.47577e-08
4.73244e-08
3.49698e-08
2.60933e-08
2.34333e-08
2.80827e-08
3.8442e-08
5.12609e-08
6.93167e-08
9.31414e-08
1.59978e-07
2.54444e-07
3.00038e-07
2.99304e-07
3.20089e-07
3.34029e-07
2.99374e-07
2.44346e-07
1.63277e-07
1.1194e-07
8.17152e-08
5.94421e-08
4.26935e-08
3.33162e-08
3.27691e-08
3.7885e-08
4.99319e-08
6.38682e-08
7.9494e-08
1.0703e-07
1.83948e-07
2.76048e-07
3.25119e-07
3.23713e-07
3.71121e-07
3.53655e-07
3.05743e-07
2.51394e-07
1.88477e-07
1.36803e-07
1.02859e-07
7.68089e-08
5.82139e-08
4.96257e-08
5.03139e-08
5.49488e-08
6.49197e-08
7.89638e-08
9.69525e-08
1.2833e-07
1.94927e-07
2.76575e-07
3.35598e-07
3.51855e-07
4.24198e-07
3.672e-07
3.08812e-07
2.45247e-07
1.98192e-07
1.6008e-07
1.25646e-07
9.68322e-08
7.6914e-08
6.71186e-08
6.67552e-08
7.05231e-08
7.94517e-08
9.39072e-08
1.12131e-07
1.37229e-07
1.78891e-07
2.5851e-07
3.39668e-07
3.83936e-07
4.82108e-07
4.06343e-07
3.55069e-07
2.83188e-07
2.28419e-07
2.08195e-07
1.81809e-07
1.52562e-07
1.23613e-07
1.00169e-07
9.14305e-08
9.62685e-08
1.08946e-07
1.26465e-07
1.44229e-07
1.61267e-07
2.00803e-07
2.82748e-07
3.60611e-07
4.23878e-07
5.55801e-07
5.45935e-07
5.96381e-07
6.5822e-07
7.07025e-07
7.29904e-07
7.23005e-07
6.7007e-07
5.50023e-07
3.89924e-07
3.27656e-07
3.95118e-07
4.77168e-07
5.39946e-07
5.69387e-07
5.55935e-07
5.28832e-07
4.93537e-07
4.70242e-07
4.77295e-07
6.44766e-07
8.07476e-07
9.57124e-07
1.08787e-06
1.20508e-06
1.30318e-06
1.37118e-06
1.39543e-06
1.35876e-06
1.23798e-06
1.09118e-06
1.13066e-06
1.14138e-06
1.12192e-06
1.0746e-06
1e-06
9.07916e-07
8.03705e-07
6.81192e-07
5.41489e-07
1.90671e-07
2.0212e-07
1.90859e-07
1.64186e-07
1.23855e-07
5.31101e-08
2.11285e-08
1.95324e-08
1.81906e-08
1.49591e-08
1.37719e-08
1.57849e-08
2.1669e-08
6.39401e-08
1.3111e-07
1.70451e-07
1.97885e-07
2.18691e-07
2.2938e-07
2.11489e-07
1.61914e-07
1.64027e-07
1.54706e-07
1.32393e-07
1.04772e-07
6.50951e-08
4.2598e-08
2.87161e-08
2.38827e-08
2.15949e-08
2.13868e-08
2.5641e-08
3.69351e-08
6.17285e-08
1.02076e-07
1.23417e-07
1.3808e-07
1.69503e-07
2.0343e-07
2.12103e-07
1.56247e-07
2.008e-07
1.98292e-07
1.54533e-07
1.07539e-07
7.37795e-08
5.43534e-08
4.16791e-08
3.3373e-08
2.71871e-08
2.48814e-08
2.93621e-08
4.01053e-08
5.75251e-08
8.10757e-08
1.03549e-07
1.40878e-07
1.95694e-07
2.34923e-07
2.29895e-07
2.06783e-07
2.40413e-07
2.27435e-07
1.80352e-07
1.22242e-07
8.4641e-08
6.31049e-08
4.93497e-08
3.83111e-08
3.00069e-08
2.90144e-08
3.33623e-08
4.14139e-08
5.34704e-08
7.10888e-08
9.6973e-08
1.54829e-07
2.29214e-07
2.76461e-07
2.60208e-07
2.74729e-07
2.84051e-07
2.44346e-07
1.94796e-07
1.35987e-07
9.63402e-08
7.19693e-08
5.41749e-08
3.97155e-08
2.97454e-08
2.83558e-08
3.50957e-08
4.42553e-08
5.4793e-08
6.93657e-08
9.65707e-08
1.63719e-07
2.45893e-07
3.09522e-07
3.01513e-07
3.52631e-07
3.22226e-07
2.51394e-07
1.96435e-07
1.45238e-07
1.06792e-07
8.01704e-08
5.91985e-08
4.26844e-08
3.23446e-08
3.0403e-08
3.58996e-08
4.60267e-08
5.7197e-08
7.13234e-08
9.6654e-08
1.57573e-07
2.41996e-07
3.24717e-07
3.44814e-07
4.30073e-07
3.48808e-07
2.45247e-07
1.85082e-07
1.45563e-07
1.16101e-07
9.16555e-08
7.00116e-08
5.24269e-08
4.09722e-08
3.75026e-08
4.17275e-08
5.19216e-08
6.39861e-08
7.60349e-08
9.36525e-08
1.35376e-07
2.20034e-07
3.2723e-07
3.91143e-07
5.10525e-07
4.0051e-07
2.83188e-07
2.1891e-07
2.05703e-07
2.00866e-07
1.88403e-07
1.64326e-07
1.30248e-07
9.33659e-08
7.65762e-08
9.002e-08
1.16214e-07
1.41763e-07
1.53618e-07
1.49778e-07
1.6455e-07
2.40649e-07
3.52654e-07
4.4612e-07
6.07371e-07
5.71616e-07
6.5822e-07
7.55204e-07
8.82734e-07
1.0138e-06
1.07946e-06
1.04148e-06
8.74898e-07
6.25122e-07
5.10892e-07
6.22662e-07
7.55645e-07
8.32347e-07
8.27421e-07
7.20374e-07
6.15409e-07
5.5168e-07
4.90009e-07
5.16401e-07
7.19079e-07
9.10378e-07
1.08787e-06
1.24993e-06
1.40652e-06
1.54551e-06
1.64995e-06
1.70135e-06
1.67809e-06
1.55529e-06
1.35715e-06
1.38787e-06
1.38436e-06
1.3436e-06
1.26719e-06
1.15742e-06
1.0318e-06
9.01763e-07
7.56546e-07
5.9525e-07
1.54809e-07
1.61732e-07
1.5083e-07
1.23855e-07
8.35985e-08
2.97058e-08
2.37935e-08
2.17083e-08
2.18852e-08
1.8409e-08
1.69533e-08
2.04079e-08
2.70771e-08
5.84342e-08
1.14553e-07
1.50706e-07
1.76294e-07
1.92693e-07
1.979e-07
1.82486e-07
1.25056e-07
1.29142e-07
1.23703e-07
1.04772e-07
7.78635e-08
5.43188e-08
3.66976e-08
2.74692e-08
2.81211e-08
2.75246e-08
2.42385e-08
2.75242e-08
3.73859e-08
5.81585e-08
9.17929e-08
1.13315e-07
1.25648e-07
1.38401e-07
1.55367e-07
1.58765e-07
1.04769e-07
1.27008e-07
1.29779e-07
1.07539e-07
8.22379e-08
6.29541e-08
4.87376e-08
3.79367e-08
3.36209e-08
3.0112e-08
2.68368e-08
3.10377e-08
4.1321e-08
5.71424e-08
7.69934e-08
9.63568e-08
1.24177e-07
1.59904e-07
1.87691e-07
1.711e-07
1.21381e-07
1.39143e-07
1.43267e-07
1.22242e-07
9.35773e-08
7.24252e-08
5.85548e-08
4.7807e-08
3.86649e-08
3.34539e-08
3.13159e-08
3.46502e-08
4.2674e-08
5.45136e-08
7.02557e-08
9.26285e-08
1.36252e-07
1.93935e-07
2.37158e-07
2.16706e-07
2.28412e-07
1.95444e-07
1.63277e-07
1.35987e-07
1.0517e-07
8.15044e-08
6.46202e-08
5.12312e-08
3.98685e-08
3.33169e-08
3.30045e-08
3.6782e-08
4.33927e-08
5.3238e-08
6.75817e-08
9.20277e-08
1.44717e-07
2.15977e-07
2.86064e-07
2.75099e-07
3.30026e-07
2.74463e-07
1.88477e-07
1.45238e-07
1.13023e-07
8.80227e-08
6.85814e-08
5.24782e-08
3.95828e-08
3.21493e-08
3.08807e-08
3.39269e-08
4.1202e-08
5.13304e-08
6.52971e-08
8.79786e-08
1.37607e-07
2.14171e-07
3.16733e-07
3.33199e-07
4.28796e-07
3.3308e-07
1.98192e-07
1.45563e-07
1.17734e-07
9.74647e-08
7.97754e-08
6.32931e-08
4.90674e-08
3.98147e-08
3.67496e-08
4.00212e-08
4.89272e-08
5.88228e-08
6.90143e-08
8.38354e-08
1.18991e-07
1.9071e-07
3.22785e-07
3.91877e-07
5.28931e-07
4.09824e-07
2.28419e-07
2.05703e-07
2.13005e-07
2.21219e-07
2.1772e-07
1.95435e-07
1.53565e-07
1.0636e-07
8.43482e-08
1.06633e-07
1.44789e-07
1.73456e-07
1.78846e-07
1.63941e-07
1.6381e-07
2.03832e-07
3.52278e-07
4.59399e-07
6.45358e-07
5.9895e-07
7.07025e-07
8.82734e-07
1.14211e-06
1.36093e-06
1.47383e-06
1.41764e-06
1.14776e-06
7.84615e-07
6.3363e-07
8.14389e-07
1.02391e-06
1.12504e-06
1.09343e-06
9.19311e-07
7.18682e-07
5.98372e-07
5.05598e-07
5.42572e-07
7.77244e-07
9.97861e-07
1.20508e-06
1.40652e-06
1.61273e-06
1.79966e-06
1.94981e-06
2.0422e-06
2.05135e-06
1.94937e-06
1.69359e-06
1.6983e-06
1.66148e-06
1.58336e-06
1.46696e-06
1.31626e-06
1.14974e-06
9.87641e-07
8.18196e-07
6.35281e-07
7.56916e-08
9.55534e-08
8.65236e-08
5.31101e-08
2.97058e-08
2.68426e-08
2.46355e-08
2.27209e-08
2.41618e-08
2.21406e-08
1.98253e-08
2.36947e-08
2.97359e-08
4.59048e-08
8.41355e-08
1.17697e-07
1.43838e-07
1.59821e-07
1.63185e-07
1.52258e-07
7.1228e-08
8.32125e-08
7.9642e-08
6.50951e-08
5.43188e-08
4.07882e-08
3.01879e-08
2.48019e-08
2.8895e-08
3.18918e-08
2.54794e-08
2.70257e-08
3.45496e-08
4.98337e-08
7.34177e-08
9.5111e-08
1.10633e-07
1.18221e-07
1.21188e-07
1.18389e-07
6.74633e-08
8.09771e-08
8.32645e-08
7.37795e-08
6.29541e-08
5.1644e-08
4.06907e-08
3.25317e-08
3.22108e-08
3.21604e-08
2.70025e-08
2.99071e-08
3.88141e-08
5.24447e-08
6.73289e-08
8.19847e-08
9.89352e-08
1.15406e-07
1.21014e-07
1.05532e-07
9.04768e-08
9.18014e-08
9.26664e-08
8.4641e-08
7.24252e-08
6.15322e-08
5.19367e-08
4.23455e-08
3.61718e-08
3.52126e-08
3.13173e-08
3.32699e-08
4.08793e-08
5.16786e-08
6.43107e-08
7.96351e-08
1.04196e-07
1.34598e-07
1.61129e-07
1.7147e-07
1.93812e-07
1.43098e-07
1.1194e-07
9.63402e-08
8.15044e-08
6.82887e-08
5.71329e-08
4.73044e-08
3.92327e-08
3.82728e-08
3.70464e-08
3.67064e-08
4.20139e-08
5.11135e-08
6.37321e-08
8.18981e-08
1.1523e-07
1.63633e-07
2.28564e-07
2.45039e-07
3.07077e-07
2.12427e-07
1.36803e-07
1.06792e-07
8.80227e-08
7.25718e-08
5.9237e-08
4.77554e-08
3.93032e-08
3.86552e-08
3.85019e-08
3.53041e-08
3.96348e-08
4.88455e-08
6.22613e-08
8.16313e-08
1.18101e-07
1.80356e-07
2.94804e-07
3.16517e-07
4.20091e-07
2.98955e-07
1.6008e-07
1.16101e-07
9.74647e-08
8.44637e-08
7.25375e-08
6.09228e-08
5.12043e-08
4.89399e-08
4.90937e-08
4.6557e-08
5.18275e-08
5.93278e-08
6.8562e-08
8.23203e-08
1.10932e-07
1.72066e-07
3.21808e-07
3.85686e-07
5.3509e-07
4.09131e-07
2.08195e-07
2.00866e-07
2.21219e-07
2.40396e-07
2.43518e-07
2.20002e-07
1.69299e-07
1.19312e-07
1.0012e-07
1.25932e-07
1.70111e-07
1.98751e-07
1.99526e-07
1.8097e-07
1.71441e-07
1.99871e-07
3.54621e-07
4.62052e-07
6.66944e-07
6.15727e-07
7.29904e-07
1.0138e-06
1.36093e-06
1.64039e-06
1.77659e-06
1.67548e-06
1.2879e-06
8.98583e-07
7.43235e-07
9.46589e-07
1.21893e-06
1.34771e-06
1.29383e-06
1.07531e-06
8.03649e-07
6.00703e-07
5.06642e-07
5.53272e-07
8.18934e-07
1.06682e-06
1.30318e-06
1.54551e-06
1.79966e-06
2.03859e-06
2.24623e-06
2.40391e-06
2.48796e-06
2.46605e-06
2.14296e-06
2.07086e-06
1.96138e-06
1.82219e-06
1.65378e-06
1.45853e-06
1.25183e-06
1.05612e-06
8.63783e-07
6.6159e-07
9.31354e-09
1.40035e-08
1.71806e-08
2.11285e-08
2.37935e-08
2.46355e-08
2.35176e-08
2.27986e-08
2.61434e-08
2.72604e-08
2.30532e-08
2.55785e-08
3.00232e-08
3.70587e-08
4.50245e-08
5.78277e-08
8.98504e-08
1.11528e-07
1.10031e-07
8.59042e-08
2.68338e-08
4.59191e-08
4.895e-08
4.2598e-08
3.66976e-08
3.01879e-08
2.47752e-08
2.22302e-08
2.97954e-08
4.04394e-08
2.8124e-08
2.53816e-08
3.00927e-08
3.95836e-08
5.17065e-08
6.36288e-08
7.88416e-08
8.98871e-08
8.8148e-08
7.7813e-08
4.1138e-08
5.14042e-08
5.61173e-08
5.43534e-08
4.87376e-08
4.06907e-08
3.27908e-08
2.75932e-08
3.22297e-08
4.02052e-08
2.95247e-08
2.79072e-08
3.40412e-08
4.44394e-08
5.49557e-08
6.38199e-08
7.3877e-08
8.28165e-08
8.39502e-08
7.36783e-08
6.9136e-08
6.38172e-08
6.47577e-08
6.31049e-08
5.85548e-08
5.19367e-08
4.34908e-08
3.56234e-08
3.56245e-08
4.74368e-08
3.78989e-08
3.20928e-08
3.72816e-08
4.64264e-08
5.58937e-08
6.57849e-08
7.87194e-08
9.49842e-08
1.16576e-07
1.38191e-07
1.65004e-07
1.08388e-07
8.17152e-08
7.19693e-08
6.46202e-08
5.71329e-08
4.96767e-08
4.25085e-08
4.07755e-08
6.06237e-08
5.28495e-08
3.81215e-08
4.01023e-08
4.76094e-08
5.75247e-08
7.02052e-08
8.94994e-08
1.18871e-07
1.71091e-07
2.17155e-07
2.83664e-07
1.69927e-07
1.02859e-07
8.01704e-08
6.85814e-08
5.9237e-08
5.07082e-08
4.34783e-08
4.29972e-08
7.28139e-08
6.70217e-08
4.03681e-08
3.91211e-08
4.62125e-08
5.75259e-08
7.2921e-08
9.78264e-08
1.4262e-07
2.42548e-07
2.9494e-07
4.03629e-07
2.43608e-07
1.25646e-07
9.16555e-08
7.97754e-08
7.25375e-08
6.56869e-08
5.88857e-08
5.83304e-08
9.3776e-08
9.34748e-08
5.85165e-08
5.52201e-08
5.96926e-08
6.72072e-08
7.89882e-08
1.00983e-07
1.50349e-07
3.00796e-07
3.70988e-07
5.27709e-07
3.9089e-07
1.81809e-07
1.88403e-07
2.1772e-07
2.43518e-07
2.4762e-07
2.19302e-07
1.71674e-07
1.62469e-07
1.48814e-07
1.37745e-07
1.75811e-07
2.04073e-07
2.05135e-07
1.86999e-07
1.72923e-07
1.87545e-07
3.43063e-07
4.52223e-07
6.69987e-07
6.10464e-07
7.23005e-07
1.07946e-06
1.47383e-06
1.77659e-06
1.87967e-06
1.68454e-06
1.31267e-06
1.19423e-06
1.03108e-06
1.00682e-06
1.26648e-06
1.43271e-06
1.38193e-06
1.14669e-06
8.39922e-07
5.81765e-07
4.90312e-07
5.48254e-07
8.42083e-07
1.11057e-06
1.37118e-06
1.64995e-06
1.94981e-06
2.24623e-06
2.52913e-06
2.79461e-06
3.03929e-06
3.22724e-06
2.81042e-06
2.54021e-06
2.28709e-06
2.05167e-06
1.81659e-06
1.57231e-06
1.32703e-06
1.10076e-06
8.8958e-07
6.73411e-07
7.40549e-09
1.30369e-08
1.69449e-08
1.95324e-08
2.17083e-08
2.27209e-08
2.27986e-08
2.37604e-08
2.93057e-08
3.42498e-08
2.80931e-08
2.80703e-08
3.00416e-08
3.25689e-08
3.19957e-08
3.09416e-08
3.48294e-08
4.90486e-08
4.41853e-08
1.96018e-08
1.33117e-08
2.39472e-08
2.92365e-08
2.87161e-08
2.74692e-08
2.48019e-08
2.22302e-08
2.2763e-08
3.52919e-08
5.86716e-08
3.93825e-08
2.84252e-08
2.87221e-08
3.31692e-08
3.83951e-08
4.45645e-08
5.27188e-08
5.61707e-08
5.27393e-08
4.51912e-08
2.1738e-08
3.39783e-08
4.09743e-08
4.16791e-08
3.79367e-08
3.25317e-08
2.75932e-08
2.64636e-08
4.10408e-08
1.02657e-07
7.79893e-08
3.52203e-08
3.24233e-08
3.77218e-08
4.46752e-08
5.10795e-08
5.64976e-08
6.03296e-08
6.06507e-08
5.81946e-08
4.43367e-08
4.35714e-08
4.73244e-08
4.93497e-08
4.7807e-08
4.23455e-08
3.56234e-08
3.27631e-08
5.32394e-08
1.81041e-07
1.52456e-07
4.9968e-08
3.70002e-08
4.15347e-08
4.86386e-08
5.53345e-08
6.30475e-08
7.34248e-08
9.16819e-08
1.17116e-07
1.38723e-07
8.05082e-08
5.94421e-08
5.41749e-08
5.12312e-08
4.73044e-08
4.25085e-08
4.05281e-08
7.25468e-08
3.10243e-07
2.73965e-07
7.37183e-08
4.27848e-08
4.46443e-08
5.1409e-08
6.01631e-08
7.24559e-08
9.29048e-08
1.37133e-07
1.94503e-07
2.59307e-07
1.37111e-07
7.68089e-08
5.91985e-08
5.24782e-08
4.77554e-08
4.34783e-08
4.35177e-08
9.21556e-08
4.67487e-07
4.14053e-07
9.47536e-08
4.46512e-08
4.43821e-08
5.2092e-08
6.32989e-08
8.04326e-08
1.13059e-07
1.9602e-07
2.71889e-07
3.80872e-07
1.95765e-07
9.68322e-08
7.00116e-08
6.32931e-08
6.09228e-08
5.88857e-08
6.12955e-08
1.25537e-07
6.16332e-07
5.63306e-07
1.37529e-07
6.41465e-08
5.92581e-08
6.37775e-08
7.22673e-08
8.81297e-08
1.263e-07
2.57837e-07
3.48399e-07
5.07024e-07
3.57273e-07
1.52562e-07
1.64326e-07
1.95435e-07
2.20002e-07
2.19302e-07
1.94941e-07
2.19543e-07
7.5795e-07
7.29681e-07
1.95691e-07
1.62332e-07
1.83547e-07
1.88687e-07
1.74696e-07
1.59789e-07
1.62555e-07
3.15123e-07
4.2996e-07
6.53333e-07
5.78379e-07
6.7007e-07
1.04148e-06
1.41764e-06
1.67548e-06
1.68454e-06
1.49831e-06
1.51554e-06
2.19466e-06
1.99901e-06
1.18125e-06
1.15658e-06
1.31212e-06
1.29898e-06
1.08796e-06
7.9008e-07
5.19885e-07
4.50772e-07
5.27046e-07
8.43981e-07
1.12161e-06
1.39543e-06
1.70135e-06
2.0422e-06
2.40391e-06
2.79461e-06
3.24729e-06
3.80149e-06
4.42778e-06
3.87229e-06
3.17272e-06
2.65189e-06
2.26429e-06
1.94209e-06
1.64375e-06
1.36262e-06
1.11262e-06
8.91464e-07
6.6969e-07
7.10999e-09
1.11952e-08
1.46953e-08
1.81906e-08
2.18852e-08
2.41618e-08
2.61434e-08
2.93057e-08
3.51937e-08
3.99959e-08
3.58826e-08
3.64024e-08
3.57719e-08
3.30433e-08
2.97127e-08
2.7845e-08
2.78889e-08
2.84889e-08
2.42521e-08
1.8213e-08
1.49403e-08
1.52743e-08
1.99647e-08
2.38827e-08
2.81211e-08
2.8895e-08
2.97954e-08
3.52919e-08
5.60059e-08
3.36317e-07
2.6963e-07
6.8373e-08
5.00377e-08
4.01326e-08
3.63154e-08
3.51078e-08
3.82632e-08
4.01344e-08
3.71995e-08
3.15303e-08
1.68816e-08
2.45728e-08
3.0743e-08
3.3373e-08
3.36209e-08
3.22108e-08
3.22297e-08
4.10408e-08
1.32425e-07
1.17087e-06
1.10168e-06
1.56608e-07
5.77143e-08
4.22646e-08
4.02582e-08
4.28123e-08
4.69589e-08
4.82789e-08
4.71247e-08
4.65164e-08
2.54329e-08
2.96878e-08
3.49698e-08
3.83111e-08
3.86649e-08
3.61718e-08
3.56245e-08
5.32394e-08
2.59294e-07
2.25401e-06
2.22196e-06
3.23825e-07
6.91305e-08
4.3224e-08
4.32056e-08
4.75198e-08
5.2678e-08
5.96573e-08
7.36355e-08
9.98882e-08
1.17782e-07
6.17643e-08
4.26935e-08
3.97155e-08
3.98685e-08
3.92327e-08
4.07755e-08
7.25468e-08
4.66837e-07
3.64807e-06
3.61817e-06
5.59661e-07
8.60716e-08
4.59695e-08
4.5767e-08
5.10398e-08
5.91202e-08
7.42042e-08
1.12224e-07
1.75884e-07
2.35656e-07
1.14962e-07
5.82139e-08
4.26844e-08
3.95828e-08
3.93032e-08
4.29972e-08
9.21556e-08
7.24753e-07
5.11324e-06
5.01632e-06
8.22174e-07
1.02617e-07
4.72598e-08
4.67226e-08
5.33126e-08
6.48126e-08
9.00137e-08
1.63102e-07
2.49812e-07
3.5298e-07
1.66439e-07
7.6914e-08
5.24269e-08
4.90674e-08
5.12043e-08
5.83304e-08
1.25537e-07
9.66949e-07
6.19211e-06
5.92713e-06
1.08032e-06
1.38043e-07
6.23286e-08
5.84434e-08
6.26136e-08
7.29933e-08
1.02965e-07
2.15572e-07
3.21943e-07
4.73113e-07
3.08588e-07
1.23613e-07
1.30248e-07
1.53565e-07
1.69299e-07
1.71674e-07
2.19543e-07
1.08276e-06
6.27973e-06
5.78567e-06
1.07614e-06
1.93255e-07
1.48681e-07
1.52486e-07
1.44456e-07
1.32515e-07
1.30443e-07
2.80216e-07
3.98525e-07
6.14317e-07
5.12158e-07
5.50023e-07
8.74898e-07
1.14776e-06
1.2879e-06
1.31267e-06
1.51554e-06
2.52326e-06
5.20816e-06
4.83081e-06
2.05677e-06
1.16938e-06
1.0585e-06
1.05013e-06
8.96295e-07
6.56844e-07
4.1334e-07
3.87995e-07
4.90662e-07
8.18961e-07
1.08929e-06
1.35876e-06
1.67809e-06
2.05135e-06
2.48796e-06
3.03929e-06
3.80149e-06
4.8852e-06
6.19165e-06
5.41331e-06
4.0435e-06
3.07571e-06
2.45411e-06
2.01778e-06
1.66037e-06
1.34809e-06
1.08252e-06
8.64306e-07
6.4781e-07
6.51133e-09
9.84568e-09
1.2297e-08
1.49591e-08
1.8409e-08
2.21406e-08
2.72604e-08
3.42498e-08
3.99959e-08
2.76382e-08
2.89911e-08
4.96923e-08
4.61551e-08
3.9039e-08
3.42301e-08
3.09926e-08
2.84975e-08
2.62474e-08
2.18716e-08
1.55679e-08
1.31288e-08
1.24763e-08
1.64237e-08
2.15949e-08
2.75246e-08
3.18918e-08
4.04394e-08
5.86716e-08
3.36317e-07
5.07667e-07
4.98938e-07
4.34736e-07
7.61742e-08
5.59112e-08
4.70726e-08
4.12162e-08
3.62857e-08
3.29578e-08
2.91256e-08
2.76019e-08
1.7657e-08
1.88275e-08
2.31358e-08
2.71871e-08
3.0112e-08
3.21604e-08
4.02052e-08
1.02657e-07
1.17087e-06
1.12489e-06
1.04807e-06
1.39467e-06
1.17677e-07
5.77917e-08
4.93148e-08
4.4151e-08
4.20468e-08
4.18257e-08
3.91856e-08
3.65287e-08
2.08409e-08
2.36835e-08
2.60933e-08
3.00069e-08
3.34539e-08
3.52126e-08
4.74368e-08
1.81041e-07
2.25401e-06
1.91386e-06
1.69456e-06
2.44452e-06
1.7186e-07
5.58698e-08
4.51513e-08
4.29524e-08
4.49635e-08
4.99326e-08
6.26024e-08
9.21037e-08
1.08998e-07
5.5817e-08
3.33162e-08
2.97454e-08
3.33169e-08
3.82728e-08
6.06237e-08
3.10243e-07
3.64807e-06
2.8771e-06
2.44562e-06
3.63164e-06
2.41698e-07
5.56469e-08
4.34614e-08
4.32554e-08
4.82816e-08
6.14033e-08
9.91972e-08
1.65267e-07
2.15493e-07
1.06483e-07
4.96257e-08
3.23446e-08
3.21493e-08
3.86552e-08
7.28139e-08
4.67487e-07
5.11324e-06
3.94891e-06
3.26561e-06
4.80629e-06
3.21406e-07
5.80507e-08
4.34043e-08
4.41907e-08
5.18914e-08
7.46874e-08
1.46672e-07
2.3346e-07
3.1887e-07
1.51956e-07
6.71186e-08
4.09722e-08
3.98147e-08
4.89399e-08
9.3776e-08
6.16332e-07
6.19211e-06
4.93332e-06
4.01709e-06
5.50368e-06
4.07688e-07
7.36985e-08
5.41447e-08
5.2355e-08
5.85268e-08
8.53801e-08
1.91437e-07
2.985e-07
4.22314e-07
2.54647e-07
1.00169e-07
9.33659e-08
1.0636e-07
1.19312e-07
1.62469e-07
7.5795e-07
6.27973e-06
5.46977e-06
4.46117e-06
5.0715e-06
4.23988e-07
1.32464e-07
1.19478e-07
1.10867e-07
1.01517e-07
1.02087e-07
2.50953e-07
3.66191e-07
5.43711e-07
4.05739e-07
3.89924e-07
6.25122e-07
7.84615e-07
8.98583e-07
1.19423e-06
2.19466e-06
5.20816e-06
5.71833e-06
4.64485e-06
4.22291e-06
1.66558e-06
9.46849e-07
8.22453e-07
6.79039e-07
4.97399e-07
3.02958e-07
3.17512e-07
4.4705e-07
7.49667e-07
9.9656e-07
1.23798e-06
1.55529e-06
1.94937e-06
2.46605e-06
3.22724e-06
4.42778e-06
6.19165e-06
6.7134e-06
5.54284e-06
4.98092e-06
3.53242e-06
2.61098e-06
2.04067e-06
1.61975e-06
1.28042e-06
1.0073e-06
8.06794e-07
6.06148e-07
5.99516e-09
8.99251e-09
1.11552e-08
1.37719e-08
1.69533e-08
1.98253e-08
2.30532e-08
2.80931e-08
3.58826e-08
2.89911e-08
3.85587e-08
6.64333e-08
5.47786e-08
4.41893e-08
3.81496e-08
3.49681e-08
3.17089e-08
2.70738e-08
2.08876e-08
1.47296e-08
1.11156e-08
1.19024e-08
1.66559e-08
2.13868e-08
2.42385e-08
2.54794e-08
2.8124e-08
3.93825e-08
2.6963e-07
4.98938e-07
4.54641e-07
1.95421e-07
5.75759e-08
5.2388e-08
5.02297e-08
4.91411e-08
4.57152e-08
3.56148e-08
2.6575e-08
2.51395e-08
1.47311e-08
1.58661e-08
2.0669e-08
2.48814e-08
2.68368e-08
2.70025e-08
2.95247e-08
7.79893e-08
1.10168e-06
1.04807e-06
1.04417e-06
6.66946e-07
7.12788e-08
5.48745e-08
5.45852e-08
5.38987e-08
4.71472e-08
4.01202e-08
3.51943e-08
3.40904e-08
2.74313e-08
2.18415e-08
2.34333e-08
2.90144e-08
3.13159e-08
3.13173e-08
3.78989e-08
1.52456e-07
2.22196e-06
1.69456e-06
1.8971e-06
1.14492e-06
8.71429e-08
5.27808e-08
5.07587e-08
4.64916e-08
4.28624e-08
4.53922e-08
6.17379e-08
1.015e-07
1.21853e-07
6.03128e-08
3.27691e-08
2.83558e-08
3.30045e-08
3.70464e-08
5.28495e-08
2.73965e-07
3.61817e-06
2.44562e-06
3.06979e-06
1.67194e-06
1.07493e-07
4.91899e-08
4.50207e-08
4.12287e-08
4.24538e-08
5.61092e-08
1.00316e-07
1.74449e-07
2.1968e-07
1.11535e-07
5.03139e-08
3.0403e-08
3.08807e-08
3.85019e-08
6.70217e-08
4.14053e-07
5.01632e-06
3.26561e-06
4.53285e-06
2.19093e-06
1.31118e-07
4.70299e-08
4.19605e-08
3.96813e-08
4.43396e-08
6.8403e-08
1.48081e-07
2.41314e-07
3.11405e-07
1.54297e-07
6.67552e-08
3.75026e-08
3.67496e-08
4.90937e-08
9.34748e-08
5.63306e-07
5.92713e-06
4.01709e-06
6.04751e-06
2.51846e-06
1.66556e-07
5.6807e-08
5.01568e-08
4.66508e-08
4.95868e-08
7.67052e-08
1.88686e-07
3.05538e-07
4.01091e-07
2.49421e-07
9.14305e-08
7.65762e-08
8.43482e-08
1.0012e-07
1.48814e-07
7.29681e-07
5.78567e-06
4.46117e-06
7.22901e-06
2.23801e-06
2.25381e-07
1.36276e-07
1.2413e-07
1.05756e-07
9.08608e-08
9.30295e-08
2.43192e-07
3.7356e-07
5.03525e-07
3.65743e-07
3.27656e-07
5.10892e-07
6.3363e-07
7.43235e-07
1.03108e-06
1.99901e-06
4.83081e-06
4.64485e-06
7.18706e-06
3.12098e-06
1.42729e-06
1.04016e-06
9.06141e-07
7.02322e-07
4.95933e-07
3.06406e-07
3.30972e-07
4.60774e-07
6.81596e-07
8.90151e-07
1.09118e-06
1.35715e-06
1.69359e-06
2.14296e-06
2.81042e-06
3.87229e-06
5.41331e-06
5.54284e-06
7.27533e-06
5.06066e-06
3.56833e-06
2.70335e-06
2.12967e-06
1.68584e-06
1.32808e-06
1.04734e-06
8.37856e-07
6.29572e-07
5.71539e-09
9.07735e-09
1.19198e-08
1.57849e-08
2.04079e-08
2.36947e-08
2.55785e-08
2.80703e-08
3.64024e-08
4.96923e-08
6.64333e-08
7.66392e-08
7.97104e-08
7.57269e-08
6.83308e-08
5.88166e-08
4.76245e-08
3.44128e-08
2.37021e-08
1.58401e-08
9.06369e-09
1.52859e-08
2.16635e-08
2.5641e-08
2.75242e-08
2.70257e-08
2.53816e-08
2.84252e-08
6.8373e-08
4.34736e-07
1.95421e-07
6.47795e-08
6.76506e-08
6.65022e-08
6.46382e-08
6.27747e-08
5.99286e-08
5.29289e-08
2.99792e-08
2.26923e-08
1.11315e-08
1.82352e-08
2.5134e-08
2.93621e-08
3.10377e-08
2.99071e-08
2.79072e-08
3.52203e-08
1.56608e-07
1.39467e-06
6.66946e-07
7.87592e-08
6.12537e-08
6.16068e-08
6.10121e-08
5.96585e-08
5.52616e-08
4.21435e-08
3.36295e-08
3.87917e-08
3.61364e-08
2.38951e-08
2.80827e-08
3.33623e-08
3.46502e-08
3.32699e-08
3.20928e-08
4.9968e-08
3.23825e-07
2.44452e-06
1.14492e-06
1.01187e-07
5.55767e-08
5.56051e-08
5.46211e-08
5.13584e-08
4.54976e-08
4.59175e-08
6.55299e-08
1.14949e-07
1.3634e-07
6.65866e-08
3.7885e-08
3.50957e-08
3.6782e-08
3.67064e-08
3.81215e-08
7.37183e-08
5.59661e-07
3.63164e-06
1.67194e-06
1.32614e-07
5.10279e-08
4.96297e-08
4.83266e-08
4.46775e-08
4.27251e-08
5.67609e-08
1.06425e-07
1.88554e-07
2.32184e-07
1.19187e-07
5.49488e-08
3.58996e-08
3.39269e-08
3.53041e-08
4.03681e-08
9.47536e-08
8.22174e-07
4.80629e-06
2.19093e-06
1.70723e-07
4.7902e-08
4.45845e-08
4.35488e-08
4.10514e-08
4.33059e-08
6.84711e-08
1.55366e-07
2.5687e-07
3.23103e-07
1.61756e-07
7.05231e-08
4.17275e-08
4.00212e-08
4.6557e-08
5.85165e-08
1.37529e-07
1.08032e-06
5.50368e-06
2.51846e-06
2.22569e-07
5.62483e-08
4.97451e-08
4.85418e-08
4.61725e-08
4.78678e-08
7.45484e-08
1.98109e-07
3.2388e-07
4.1454e-07
2.71403e-07
9.62685e-08
9.002e-08
1.06633e-07
1.25932e-07
1.37745e-07
1.95691e-07
1.07614e-06
5.0715e-06
2.23801e-06
2.934e-07
1.74054e-07
1.6452e-07
1.43767e-07
1.21133e-07
1.02723e-07
1.00824e-07
2.53553e-07
3.96436e-07
5.22076e-07
4.07579e-07
3.95118e-07
6.22662e-07
8.14389e-07
9.46589e-07
1.00682e-06
1.18125e-06
2.05677e-06
4.22291e-06
3.12098e-06
1.4741e-06
1.48275e-06
1.42777e-06
1.13417e-06
8.55073e-07
6.10345e-07
3.87863e-07
3.86235e-07
4.95089e-07
6.99743e-07
9.17532e-07
1.13066e-06
1.38787e-06
1.6983e-06
2.07086e-06
2.54021e-06
3.17272e-06
4.0435e-06
4.98092e-06
5.06066e-06
3.96224e-06
3.20487e-06
2.61686e-06
2.12661e-06
1.71794e-06
1.37923e-06
1.10652e-06
8.83394e-07
6.63625e-07
5.78692e-09
1.11272e-08
1.55423e-08
2.1669e-08
2.70771e-08
2.97359e-08
3.00232e-08
3.00416e-08
3.57719e-08
4.61551e-08
5.47786e-08
7.97104e-08
1.02008e-07
1.13684e-07
1.19916e-07
1.21375e-07
1.16976e-07
1.04562e-07
7.9664e-08
4.70599e-08
9.90987e-09
2.58488e-08
3.33037e-08
3.69351e-08
3.73859e-08
3.45496e-08
3.00927e-08
2.87221e-08
5.00377e-08
7.61742e-08
5.75759e-08
6.76506e-08
8.41513e-08
9.26933e-08
9.6602e-08
9.82272e-08
9.64918e-08
8.81836e-08
6.75408e-08
3.25399e-08
1.38043e-08
2.75139e-08
3.56503e-08
4.01053e-08
4.1321e-08
3.88141e-08
3.40412e-08
3.24233e-08
5.77143e-08
1.17677e-07
7.12788e-08
6.12537e-08
7.10634e-08
7.60948e-08
7.75914e-08
7.74067e-08
7.44818e-08
6.58143e-08
5.12403e-08
5.39741e-08
4.95413e-08
3.61656e-08
3.8442e-08