/*--------------------------------*- C++ -*----------------------------------*\
  =========                 |
  \\      /  F ield         | OpenFOAM: The Open Source CFD Toolbox
   \\    /   O peration     | Website:  https://openfoam.org
    \\  /    A nd           | Version:  8
     \\/     M anipulation  |
\*---------------------------------------------------------------------------*/
FoamFile
{
    version     2.0;
    format      ascii;
    class       volScalarField;
    location    "2000";
    object      k;
}
// * * * * * * * * * * * * * * * * * * * * * * * * * * * * * * * * * * * * * //

dimensions      [0 2 -2 0 0 0 0];

internalField   nonuniform List<scalar> 
4000
(
3.08759e-05
2.91536e-05
2.67066e-05
2.41893e-05
2.10557e-05
1.30841e-05
3.23495e-06
2.77159e-06
2.69733e-06
2.54356e-06
2.40635e-06
2.33053e-06
2.35117e-06
4.57469e-06
1.75953e-05
2.16119e-05
2.37494e-05
2.56659e-05
2.77891e-05
2.96782e-05
3.33963e-05
3.11731e-05
2.68827e-05
2.16932e-05
1.82613e-05
1.25609e-05
6.5671e-06
4.09496e-06
4.42388e-06
4.05911e-06
3.63173e-06
3.16797e-06
3.37139e-06
7.56935e-06
1.42791e-05
1.71704e-05
2.00593e-05
2.47574e-05
2.91237e-05
3.20271e-05
3.49049e-05
3.30963e-05
2.83748e-05
2.119e-05
1.62271e-05
1.21058e-05
8.70934e-06
5.69791e-06
4.79744e-06
4.94577e-06
4.38468e-06
3.63781e-06
4.20458e-06
7.11062e-06
1.0757e-05
1.29981e-05
1.78119e-05
2.54348e-05
3.06937e-05
3.33674e-05
3.57641e-05
3.47122e-05
3.08458e-05
2.55393e-05
1.79044e-05
1.47175e-05
1.23045e-05
9.15567e-06
6.32103e-06
5.53939e-06
6.65415e-06
7.99135e-06
9.85893e-06
1.24247e-05
1.4749e-05
1.81898e-05
2.26964e-05
2.79375e-05
3.22236e-05
3.40546e-05
3.64269e-05
3.63432e-05
3.4167e-05
3.08593e-05
2.72866e-05
2.44565e-05
2.19695e-05
1.95714e-05
1.75513e-05
1.66701e-05
1.79506e-05
1.93407e-05
2.07571e-05
2.22618e-05
2.39506e-05
2.60361e-05
2.86972e-05
3.16556e-05
3.40268e-05
3.45678e-05
3.71015e-05
3.81744e-05
3.77065e-05
3.64439e-05
3.48694e-05
3.32332e-05
3.15215e-05
2.96901e-05
2.78565e-05
2.62434e-05
2.65749e-05
2.75704e-05
2.87408e-05
2.99744e-05
3.12377e-05
3.25523e-05
3.38883e-05
3.51287e-05
3.58332e-05
3.50617e-05
3.78765e-05
4.0134e-05
4.12192e-05
4.15982e-05
4.15149e-05
4.09501e-05
3.9872e-05
3.83576e-05
3.64599e-05
3.40689e-05
3.35261e-05
3.43592e-05
3.54663e-05
3.65436e-05
3.74597e-05
3.80949e-05
3.83835e-05
3.83e-05
3.76011e-05
3.55944e-05
3.88528e-05
4.23793e-05
4.48882e-05
4.66339e-05
4.77464e-05
4.81145e-05
4.76692e-05
4.64131e-05
4.43171e-05
4.10813e-05
3.96824e-05
4.05655e-05
4.17436e-05
4.27229e-05
4.33046e-05
4.331e-05
4.26836e-05
4.14773e-05
3.95131e-05
3.62891e-05
4.0239e-05
4.53272e-05
4.93511e-05
5.23564e-05
5.45148e-05
5.57209e-05
5.58876e-05
5.49547e-05
5.27409e-05
4.8614e-05
4.6175e-05
4.73058e-05
4.85942e-05
4.94601e-05
4.96762e-05
4.90265e-05
4.75315e-05
4.52675e-05
4.20071e-05
3.73348e-05
4.23233e-05
4.89668e-05
5.44818e-05
5.85888e-05
6.17041e-05
6.38884e-05
6.50838e-05
6.51785e-05
6.38804e-05
6.02212e-05
5.65032e-05
5.75076e-05
5.80925e-05
5.79694e-05
5.71435e-05
5.55384e-05
5.31182e-05
4.97882e-05
4.51044e-05
3.89969e-05
2.91536e-05
2.97225e-05
2.80299e-05
2.51488e-05
2.16792e-05
1.52802e-05
4.24431e-06
4.04361e-06
3.65042e-06
3.35162e-06
3.1537e-06
3.17359e-06
3.6358e-06
8.97271e-06
1.89313e-05
2.29214e-05
2.54199e-05
2.76703e-05
2.95696e-05
2.93558e-05
3.11731e-05
3.53007e-05
3.30131e-05
2.66509e-05
2.15836e-05
1.54246e-05
1.0575e-05
7.70723e-06
6.87332e-06
6.2842e-06
5.6782e-06
5.8501e-06
7.232e-06
1.09681e-05
1.74768e-05
2.12441e-05
2.43161e-05
2.99892e-05
3.46978e-05
3.17566e-05
3.30963e-05
3.88603e-05
3.84576e-05
3.2213e-05
2.2853e-05
1.63138e-05
1.20749e-05
9.64192e-06
9.00858e-06
8.46231e-06
7.41237e-06
6.92759e-06
8.01103e-06
1.07414e-05
1.4549e-05
1.71887e-05
2.30935e-05
3.33894e-05
3.81662e-05
3.33886e-05
3.47122e-05
4.15682e-05
4.23477e-05
3.62549e-05
2.44447e-05
1.8034e-05
1.39288e-05
1.08626e-05
9.06555e-06
8.86938e-06
8.25496e-06
7.74087e-06
9.29842e-06
1.20039e-05
1.48961e-05
1.81107e-05
2.63607e-05
3.82009e-05
4.13938e-05
3.44328e-05
3.63432e-05
4.39574e-05
4.53255e-05
4.04903e-05
3.00495e-05
2.34699e-05
1.88915e-05
1.51299e-05
1.27164e-05
1.22475e-05
1.26251e-05
1.30051e-05
1.44116e-05
1.68692e-05
1.98981e-05
2.41072e-05
3.26992e-05
4.15655e-05
4.35759e-05
3.53205e-05
3.81744e-05
4.57174e-05
4.71871e-05
4.45817e-05
3.86172e-05
3.0795e-05
2.54783e-05
2.13728e-05
1.8721e-05
1.79286e-05
1.84999e-05
1.92695e-05
2.07108e-05
2.30175e-05
2.64404e-05
3.25113e-05
3.8838e-05
4.34803e-05
4.41283e-05
3.62922e-05
4.0134e-05
4.70641e-05
4.82191e-05
4.77251e-05
4.62641e-05
4.21499e-05
3.52317e-05
2.91443e-05
2.55303e-05
2.39304e-05
2.43425e-05
2.53753e-05
2.74305e-05
3.11451e-05
3.58032e-05
3.97999e-05
4.24527e-05
4.39512e-05
4.4071e-05
3.75072e-05
4.23793e-05
4.89867e-05
5.04833e-05
5.19302e-05
5.38592e-05
5.40594e-05
5.21379e-05
4.85306e-05
4.33924e-05
3.81165e-05
3.75947e-05
3.97002e-05
4.236e-05
4.45949e-05
4.62263e-05
4.67607e-05
4.59253e-05
4.52245e-05
4.48948e-05
3.91104e-05
4.53272e-05
5.33386e-05
5.77559e-05
6.14223e-05
6.45082e-05
6.6004e-05
6.52419e-05
6.20528e-05
5.60476e-05
4.68984e-05
4.34184e-05
4.70251e-05
5.11694e-05
5.45529e-05
5.63429e-05
5.57846e-05
5.37508e-05
5.13557e-05
4.85631e-05
4.13067e-05
4.89668e-05
5.66817e-05
6.32982e-05
6.85643e-05
7.28855e-05
7.62022e-05
7.82682e-05
7.87828e-05
7.72589e-05
7.28068e-05
6.75113e-05
6.88961e-05
6.94427e-05
6.89371e-05
6.74286e-05
6.48555e-05
6.13504e-05
5.69557e-05
5.12377e-05
4.41271e-05
2.67066e-05
2.80299e-05
2.67723e-05
2.42069e-05
2.06957e-05
1.43116e-05
4.85601e-06
4.8165e-06
4.37701e-06
3.88833e-06
3.64173e-06
3.80515e-06
4.5416e-06
1.12002e-05
1.94024e-05
2.32067e-05
2.5693e-05
2.77705e-05
2.91169e-05
2.79771e-05
2.68827e-05
3.30131e-05
3.21833e-05
2.6504e-05
2.14147e-05
1.53515e-05
1.16271e-05
9.32666e-06
8.51328e-06
7.69519e-06
7.01142e-06
7.41098e-06
8.85134e-06
1.25674e-05
1.8629e-05
2.25647e-05
2.59335e-05
3.10268e-05
3.43093e-05
2.95227e-05
2.83748e-05
3.84576e-05
4.02658e-05
3.41437e-05
2.45097e-05
1.75408e-05
1.37019e-05
1.19193e-05
1.1267e-05
1.02665e-05
8.8766e-06
8.78914e-06
1.00987e-05
1.27406e-05
1.64636e-05
2.02928e-05
2.66383e-05
3.53728e-05
3.8583e-05
3.11389e-05
3.08458e-05
4.23477e-05
4.37402e-05
3.83348e-05
2.73249e-05
1.98189e-05
1.55042e-05
1.28817e-05
1.15384e-05
1.07711e-05
1.01073e-05
9.82667e-06
1.08718e-05
1.27746e-05
1.55779e-05
1.9497e-05
2.8981e-05
4.04783e-05
4.27039e-05
3.26588e-05
3.4167e-05
4.53255e-05
4.5615e-05
4.03573e-05
2.98465e-05
2.23515e-05
1.76162e-05
1.41009e-05
1.1773e-05
1.08836e-05
1.0679e-05
1.06433e-05
1.20106e-05
1.41487e-05
1.66503e-05
2.0907e-05
3.18279e-05
4.33902e-05
4.56279e-05
3.44143e-05
3.77065e-05
4.71871e-05
4.64977e-05
4.153e-05
3.30231e-05
2.53634e-05
2.00828e-05
1.59946e-05
1.32568e-05
1.229e-05
1.23285e-05
1.2583e-05
1.38315e-05
1.5975e-05
1.88033e-05
2.3647e-05
3.34686e-05
4.38518e-05
4.67704e-05
3.63825e-05
4.12192e-05
4.82191e-05
4.68184e-05
4.15852e-05
3.53448e-05
2.94132e-05
2.39161e-05
1.92583e-05
1.61573e-05
1.48319e-05
1.47709e-05
1.51832e-05
1.65233e-05
1.8934e-05
2.19834e-05
2.59679e-05
3.23993e-05
4.19383e-05
4.68222e-05
3.8562e-05
4.48882e-05
5.04833e-05
5.0448e-05
4.62754e-05
4.11671e-05
3.78809e-05
3.35433e-05
2.87462e-05
2.4249e-05
2.08165e-05
1.95716e-05
2.03914e-05
2.25594e-05
2.56409e-05
2.87082e-05
3.13891e-05
3.62499e-05
4.34676e-05
4.73436e-05
4.11914e-05
4.93511e-05
5.77559e-05
6.72283e-05
7.66113e-05
8.28329e-05
8.53065e-05
8.36359e-05
7.74269e-05
6.57666e-05
5.07102e-05
4.50004e-05
5.18391e-05
6.04207e-05
6.75098e-05
7.12222e-05
6.97557e-05
6.58529e-05
5.94794e-05
5.28869e-05
4.45813e-05
5.44818e-05
6.32982e-05
7.08924e-05
7.72064e-05
8.26524e-05
8.70754e-05
9.00751e-05
9.11314e-05
8.95255e-05
8.41356e-05
7.73301e-05
7.91922e-05
7.96937e-05
7.87834e-05
7.65511e-05
7.29668e-05
6.84196e-05
6.30831e-05
5.6502e-05
4.84907e-05
2.41893e-05
2.51488e-05
2.42069e-05
2.18977e-05
1.81505e-05
1.03511e-05
5.57638e-06
5.29295e-06
5.04729e-06
4.43311e-06
4.18932e-06
4.58362e-06
5.66652e-06
1.17e-05
1.88577e-05
2.24537e-05
2.47974e-05
2.65025e-05
2.73543e-05
2.59123e-05
2.16932e-05
2.66509e-05
2.6504e-05
2.30502e-05
1.87176e-05
1.36261e-05
1.10425e-05
9.73778e-06
9.90815e-06
9.2287e-06
8.28044e-06
8.39998e-06
9.69565e-06
1.29805e-05
1.83342e-05
2.21147e-05
2.52699e-05
2.91712e-05
3.11268e-05
2.59544e-05
2.119e-05
3.2213e-05
3.41437e-05
2.86395e-05
2.14627e-05
1.65167e-05
1.40205e-05
1.27744e-05
1.25876e-05
1.16789e-05
9.99775e-06
9.92859e-06
1.12569e-05
1.36791e-05
1.71828e-05
2.14736e-05
2.76177e-05
3.43254e-05
3.62282e-05
2.7384e-05
2.55393e-05
3.62549e-05
3.83348e-05
3.33775e-05
2.51084e-05
1.93604e-05
1.61039e-05
1.42394e-05
1.32735e-05
1.2523e-05
1.18385e-05
1.14722e-05
1.21652e-05
1.38613e-05
1.6678e-05
2.13141e-05
3.01924e-05
3.94171e-05
4.16185e-05
2.97441e-05
3.08593e-05
4.04903e-05
4.03573e-05
3.57424e-05
2.77302e-05
2.16059e-05
1.76062e-05
1.47055e-05
1.2759e-05
1.18324e-05
1.16087e-05
1.16041e-05
1.24588e-05
1.41145e-05
1.66193e-05
2.13151e-05
3.15947e-05
4.21692e-05
4.57984e-05
3.28185e-05
3.64439e-05
4.45817e-05
4.153e-05
3.64607e-05
2.94457e-05
2.33386e-05
1.87817e-05
1.51256e-05
1.24937e-05
1.12713e-05
1.1038e-05
1.1212e-05
1.24389e-05
1.43294e-05
1.68446e-05
2.12697e-05
3.10369e-05
4.24164e-05
4.7987e-05
3.58928e-05
4.15982e-05
4.77251e-05
4.15852e-05
3.60049e-05
3.05208e-05
2.55595e-05
2.1152e-05
1.71777e-05
1.41014e-05
1.24056e-05
1.19106e-05
1.22214e-05
1.37748e-05
1.60076e-05
1.82449e-05
2.14301e-05
2.87147e-05
4.0351e-05
4.83806e-05
3.90411e-05
4.66339e-05
5.19302e-05
4.62754e-05
4.16468e-05
3.97012e-05
3.78402e-05
3.48862e-05
3.05909e-05
2.5413e-05
2.0234e-05
1.79434e-05
1.98411e-05
2.38276e-05
2.80358e-05
3.03299e-05
3.05951e-05
3.37004e-05
4.21983e-05
4.89485e-05
4.2619e-05
5.23564e-05
6.14223e-05
7.66113e-05
9.02673e-05
9.93527e-05
0.000107421
0.000110108
0.000104849
9.04272e-05
6.94611e-05
6.02893e-05
7.06864e-05
8.33267e-05
9.16664e-05
9.29007e-05
8.52747e-05
7.76525e-05
6.8575e-05
5.6472e-05
4.6984e-05
5.85888e-05
6.85643e-05
7.72064e-05
8.46917e-05
9.16209e-05
9.75575e-05
0.000101902
0.000104005
0.000103053
9.79603e-05
8.94386e-05
9.07908e-05
9.06385e-05
8.88484e-05
8.5445e-05
8.04376e-05
7.45122e-05
6.81173e-05
6.05968e-05
5.16492e-05
2.10557e-05
2.16792e-05
2.06957e-05
1.81505e-05
1.39676e-05
7.01389e-06
6.03726e-06
5.67767e-06
5.70749e-06
5.09137e-06
4.80879e-06
5.43718e-06
6.57171e-06
1.10115e-05
1.72373e-05
2.06873e-05
2.2961e-05
2.43588e-05
2.47911e-05
2.34855e-05
1.82613e-05
2.15836e-05
2.14147e-05
1.87176e-05
1.50818e-05
1.24594e-05
1.04374e-05
9.79412e-06
1.12632e-05
1.09314e-05
9.14358e-06
9.00495e-06
1.0033e-05
1.26181e-05
1.69281e-05
2.03359e-05
2.29494e-05
2.50979e-05
2.58747e-05
2.13916e-05
1.62271e-05
2.2853e-05
2.45097e-05
2.14627e-05
1.76679e-05
1.51708e-05
1.35122e-05
1.25549e-05
1.32581e-05
1.26885e-05
1.06625e-05
1.05614e-05
1.17925e-05
1.38826e-05
1.66686e-05
2.02808e-05
2.52433e-05
3.00309e-05
3.11414e-05
2.24797e-05
1.79044e-05
2.44447e-05
2.73249e-05
2.51084e-05
2.09249e-05
1.78294e-05
1.59456e-05
1.46927e-05
1.41594e-05
1.39492e-05
1.25753e-05
1.2062e-05
1.2866e-05
1.44977e-05
1.69364e-05
2.10429e-05
2.81693e-05
3.55095e-05
3.74449e-05
2.63226e-05
2.72866e-05
3.00495e-05
2.98465e-05
2.77302e-05
2.35754e-05
1.99599e-05
1.72589e-05
1.51748e-05
1.38686e-05
1.36706e-05
1.33995e-05
1.28227e-05
1.32631e-05
1.47562e-05
1.71998e-05
2.15923e-05
3.00613e-05
3.92564e-05
4.38421e-05
3.08684e-05
3.48694e-05
3.86172e-05
3.30231e-05
2.94457e-05
2.53467e-05
2.14377e-05
1.80737e-05
1.52051e-05
1.32213e-05
1.27102e-05
1.26566e-05
1.20901e-05
1.28188e-05
1.45729e-05
1.71342e-05
2.13004e-05
2.96452e-05
4.02365e-05
4.86638e-05
3.50788e-05
4.15149e-05
4.62641e-05
3.53448e-05
3.05208e-05
2.70483e-05
2.3744e-05
2.04682e-05
1.72991e-05
1.47697e-05
1.36529e-05
1.34533e-05
1.32812e-05
1.45477e-05
1.63989e-05
1.83556e-05
2.12239e-05
2.77096e-05
3.85067e-05
5.03208e-05
3.90874e-05
4.77464e-05
5.38592e-05
4.11671e-05
3.97012e-05
4.00815e-05
3.98143e-05
3.79616e-05
3.4027e-05
2.81871e-05
2.20831e-05
1.94295e-05
2.23345e-05
2.77491e-05
3.21981e-05
3.36324e-05
3.27397e-05
3.4526e-05
4.06789e-05
5.08466e-05
4.34586e-05
5.45148e-05
6.45082e-05
8.28329e-05
9.93527e-05
0.000117216
0.00013065
0.000135854
0.000128983
0.000107711
7.90132e-05
6.79663e-05
8.41631e-05
0.000102758
0.00011318
0.000112761
0.000100648
8.63233e-05
7.5131e-05
5.90921e-05
4.85575e-05
6.17041e-05
7.28855e-05
8.26524e-05
9.16209e-05
0.000100366
0.000107976
0.000113899
0.000117469
0.000117819
0.000113879
0.000103672
0.000103873
0.000102368
9.91313e-05
9.42094e-05
8.76431e-05
8.00913e-05
7.23789e-05
6.38472e-05
5.39397e-05
1.30841e-05
1.52802e-05
1.43116e-05
1.03511e-05
7.01389e-06
6.54705e-06
6.18027e-06
5.85332e-06
6.09543e-06
5.75811e-06
5.33862e-06
6.00924e-06
6.9987e-06
9.37662e-06
1.4052e-05
1.75556e-05
2.00555e-05
2.15059e-05
2.18016e-05
2.08157e-05
1.25609e-05
1.54246e-05
1.53515e-05
1.36261e-05
1.24594e-05
1.08765e-05
9.67235e-06
9.46414e-06
1.16303e-05
1.22186e-05
9.68631e-06
9.20854e-06
9.93541e-06
1.17428e-05
1.45745e-05
1.74962e-05
1.99186e-05
2.12117e-05
2.09045e-05
1.75916e-05
1.21058e-05
1.63138e-05
1.75408e-05
1.65167e-05
1.51708e-05
1.38444e-05
1.25078e-05
1.1814e-05
1.32324e-05
1.33463e-05
1.09282e-05
1.06565e-05
1.17446e-05
1.35371e-05
1.53654e-05
1.77013e-05
2.07002e-05
2.3077e-05
2.22628e-05
1.62804e-05
1.47175e-05
1.8034e-05
1.98189e-05
1.93604e-05
1.78294e-05
1.64742e-05
1.5287e-05
1.41574e-05
1.41194e-05
1.45118e-05
1.26853e-05
1.20869e-05
1.29427e-05
1.44495e-05
1.6233e-05
1.88538e-05
2.29616e-05
2.67679e-05
2.73866e-05
2.25148e-05
2.44565e-05
2.34699e-05
2.23515e-05
2.16059e-05
1.99599e-05
1.81571e-05
1.65174e-05
1.51237e-05
1.4456e-05
1.51833e-05
1.44991e-05
1.3347e-05
1.36568e-05
1.49923e-05
1.70387e-05
2.02027e-05
2.55881e-05
3.15881e-05
3.60422e-05
2.85733e-05
3.32332e-05
3.0795e-05
2.53634e-05
2.33386e-05
2.14377e-05
1.92735e-05
1.70804e-05
1.51192e-05
1.40564e-05
1.4842e-05
1.48703e-05
1.32047e-05
1.33918e-05
1.49476e-05
1.73736e-05
2.08825e-05
2.69919e-05
3.53811e-05
4.59605e-05
3.38949e-05
4.09501e-05
4.21499e-05
2.94132e-05
2.55595e-05
2.3744e-05
2.18893e-05
1.97494e-05
1.75399e-05
1.59758e-05
1.62944e-05
1.67203e-05
1.54756e-05
1.59725e-05
1.73183e-05
1.91116e-05
2.17944e-05
2.70464e-05
3.62462e-05
5.16381e-05
3.86716e-05
4.81145e-05
5.40594e-05
3.78809e-05
3.78402e-05
3.98143e-05
4.09747e-05
4.00463e-05
3.62505e-05
2.98378e-05
2.38763e-05
2.19879e-05
2.5134e-05
3.09779e-05
3.52316e-05
3.62145e-05
3.51599e-05
3.58793e-05
4.09714e-05
5.2311e-05
4.36232e-05
5.57209e-05
6.6004e-05
8.53065e-05
0.000107421
0.00013065
0.000147261
0.000152777
0.000142136
0.000112912
8.18767e-05
7.15973e-05
9.07705e-05
0.000114232
0.000127194
0.000126146
0.000111876
9.29538e-05
7.71775e-05
5.98121e-05
4.91924e-05
6.38884e-05
7.62022e-05
8.70754e-05
9.75575e-05
0.000107976
0.000117331
0.000125169
0.000130961
0.000133996
0.000133207
0.000121287
0.000118563
0.00011435
0.000108872
0.000102054
9.3856e-05
8.47692e-05
7.56898e-05
6.61985e-05
5.5419e-05
3.23495e-06
4.24431e-06
4.85601e-06
5.57638e-06
6.03726e-06
6.18027e-06
5.9917e-06
5.86677e-06
6.42344e-06
6.61369e-06
5.9065e-06
6.32822e-06
7.04779e-06
8.12389e-06
9.27534e-06
1.09777e-05
1.46915e-05
1.69261e-05
1.67653e-05
1.42102e-05
6.5671e-06
1.0575e-05
1.16271e-05
1.10425e-05
1.04374e-05
9.67235e-06
9.02563e-06
9.12452e-06
1.19531e-05
1.42358e-05
1.05415e-05
9.22794e-06
9.66307e-06
1.07951e-05
1.21326e-05
1.35762e-05
1.54462e-05
1.67431e-05
1.6134e-05
1.32975e-05
8.70934e-06
1.20749e-05
1.37019e-05
1.40205e-05
1.35122e-05
1.25078e-05
1.14319e-05
1.10385e-05
1.32875e-05
1.46473e-05
1.13919e-05
1.05504e-05
1.13545e-05
1.27973e-05
1.40473e-05
1.5159e-05
1.65594e-05
1.75955e-05
1.67751e-05
1.2814e-05
1.23045e-05
1.39288e-05
1.55042e-05
1.61039e-05
1.59456e-05
1.5287e-05
1.4144e-05
1.31395e-05
1.40504e-05
1.58326e-05
1.33387e-05
1.20356e-05
1.2702e-05
1.40379e-05
1.53013e-05
1.67252e-05
1.86088e-05
2.03183e-05
2.11261e-05
1.95009e-05
2.19695e-05
1.88915e-05
1.76162e-05
1.76062e-05
1.72589e-05
1.65174e-05
1.55782e-05
1.46579e-05
1.49271e-05
1.77192e-05
1.61239e-05
1.37796e-05
1.38023e-05
1.48869e-05
1.63818e-05
1.83669e-05
2.11722e-05
2.43154e-05
2.79288e-05
2.63621e-05
3.15215e-05
2.54783e-05
2.00828e-05
1.87817e-05
1.80737e-05
1.70804e-05
1.58681e-05
1.47915e-05
1.50689e-05
1.90664e-05
1.82281e-05
1.44243e-05
1.39131e-05
1.50414e-05
1.70099e-05
1.96336e-05
2.34968e-05
2.90282e-05
3.84035e-05
3.23345e-05
3.9872e-05
3.52317e-05
2.39161e-05
2.1152e-05
2.04682e-05
1.97494e-05
1.86681e-05
1.75037e-05
1.75439e-05
2.18039e-05
2.20676e-05
1.79079e-05
1.72087e-05
1.79383e-05
1.93794e-05
2.1607e-05
2.54222e-05
3.2546e-05
4.95165e-05
3.76801e-05
4.76692e-05
5.21379e-05
3.35433e-05
3.48862e-05
3.79616e-05
4.00463e-05
3.94823e-05
3.55525e-05
2.98499e-05
2.80743e-05
2.69324e-05
2.66929e-05
3.16165e-05
3.56618e-05
3.67931e-05
3.59438e-05
3.5948e-05
3.9114e-05
5.15244e-05
4.29995e-05
5.58876e-05
6.52419e-05
8.36359e-05
0.000110108
0.000135854
0.000152777
0.00015473
0.000137305
0.000108454
9.37792e-05
8.38183e-05
9.01007e-05
0.00011341
0.000129839
0.000130393
0.000116229
9.5247e-05
7.52904e-05
5.83496e-05
4.88931e-05
6.50838e-05
7.82682e-05
9.00751e-05
0.000101902
0.000113899
0.000125169
0.00013547
0.000144794
0.000153127
0.000159376
0.000145321
0.000135865
0.00012669
0.000117839
0.000108655
9.86818e-05
8.8135e-05
7.78103e-05
6.75114e-05
5.60774e-05
2.77159e-06
4.04361e-06
4.8165e-06
5.29295e-06
5.67767e-06
5.85332e-06
5.86677e-06
6.02892e-06
6.93026e-06
7.69789e-06
6.7406e-06
6.7354e-06
7.05164e-06
7.44924e-06
7.36896e-06
7.2031e-06
7.80393e-06
9.79201e-06
9.1186e-06
5.30335e-06
4.09496e-06
7.70723e-06
9.32666e-06
9.73778e-06
9.79412e-06
9.46414e-06
9.12452e-06
9.68668e-06
1.30967e-05
1.63616e-05
1.21161e-05
1.02429e-05
1.01654e-05
1.06801e-05
1.11011e-05
1.17333e-05
1.25494e-05
1.24073e-05
1.16165e-05
9.24707e-06
5.69791e-06
9.64192e-06
1.19193e-05
1.27744e-05
1.25549e-05
1.1814e-05
1.10385e-05
1.11718e-05
1.43176e-05
1.94407e-05
1.55783e-05
1.17955e-05
1.16986e-05
1.24659e-05
1.32246e-05
1.39043e-05
1.43227e-05
1.4333e-05
1.35227e-05
1.09477e-05
9.15567e-06
1.08626e-05
1.28817e-05
1.42394e-05
1.46927e-05
1.41574e-05
1.31395e-05
1.27697e-05
1.57447e-05
2.54534e-05
2.19374e-05
1.4151e-05
1.30693e-05
1.37983e-05
1.46883e-05
1.54048e-05
1.61562e-05
1.68194e-05
1.7564e-05
1.74625e-05
1.95714e-05
1.51299e-05
1.41009e-05
1.47055e-05
1.51748e-05
1.51237e-05
1.46579e-05
1.44156e-05
1.79628e-05
3.52385e-05
3.16304e-05
1.74563e-05
1.45842e-05
1.48854e-05
1.57304e-05
1.68249e-05
1.81838e-05
1.98881e-05
2.31108e-05
2.44961e-05
2.96901e-05
2.13728e-05
1.59946e-05
1.51256e-05
1.52051e-05
1.51192e-05
1.47915e-05
1.48821e-05
1.98825e-05
4.63272e-05
4.1787e-05
1.98317e-05
1.51405e-05
1.51923e-05
1.63716e-05
1.80457e-05
2.03074e-05
2.38691e-05
3.1771e-05
3.06264e-05
3.83576e-05
2.91443e-05
1.92583e-05
1.71777e-05
1.72991e-05
1.75399e-05
1.75037e-05
1.78968e-05
2.39596e-05
5.69144e-05
5.29724e-05
2.53208e-05
1.88603e-05
1.82977e-05
1.90819e-05
2.05483e-05
2.30167e-05
2.81981e-05
4.37813e-05
3.6133e-05
4.64131e-05
4.85306e-05
2.87462e-05
3.05909e-05
3.4027e-05
3.62505e-05
3.55525e-05
3.237e-05
3.32612e-05
6.70749e-05
6.35563e-05
3.114e-05
2.98734e-05
3.30738e-05
3.46484e-05
3.42187e-05
3.3787e-05
3.50359e-05
4.84627e-05
4.15741e-05
5.49547e-05
6.20528e-05
7.74269e-05
0.000104849
0.000128983
0.000142136
0.000137305
0.000119629
0.000113741
0.000142606
0.000131113
9.46774e-05
0.00010065
0.00011769
0.000122167
0.000110643
9.03609e-05
6.88485e-05
5.4452e-05
4.76223e-05
6.51785e-05
7.87828e-05
9.11314e-05
0.000104005
0.000117469
0.000130961
0.000144794
0.000160038
0.000177765
0.000196795
0.000179942
0.000157577
0.000139831
0.000125852
0.000113609
0.000101654
8.97069e-05
7.83702e-05
6.76074e-05
5.58704e-05
2.69733e-06
3.65042e-06
4.37701e-06
5.04729e-06
5.70749e-06
6.09543e-06
6.42344e-06
6.93026e-06
7.82817e-06
8.53314e-06
7.93379e-06
8.00842e-06
7.91756e-06
7.51425e-06
7.00165e-06
6.70195e-06
6.7086e-06
6.80244e-06
6.10967e-06
5.04693e-06
4.42388e-06
6.87332e-06
8.51328e-06
9.90815e-06
1.12632e-05
1.16303e-05
1.19531e-05
1.30967e-05
1.54212e-05
3.98417e-05
3.37265e-05
1.64905e-05
1.51668e-05
1.33542e-05
1.21604e-05
1.13692e-05
1.13835e-05
1.09599e-05
9.98175e-06
7.26889e-06
4.79744e-06
9.00858e-06
1.1267e-05
1.25876e-05
1.32581e-05
1.32324e-05
1.32875e-05
1.43176e-05
2.20641e-05
8.36371e-05
7.76616e-05
2.35468e-05
1.63571e-05
1.45975e-05
1.3698e-05
1.35297e-05
1.35845e-05
1.29456e-05
1.16784e-05
9.4278e-06
6.32103e-06
9.06555e-06
1.15384e-05
1.32735e-05
1.41594e-05
1.41194e-05
1.40504e-05
1.57447e-05
3.15155e-05
0.00013324
0.000128164
3.45566e-05
1.72253e-05
1.49419e-05
1.44858e-05
1.46024e-05
1.46886e-05
1.46229e-05
1.49065e-05
1.57067e-05
1.75513e-05
1.27164e-05
1.1773e-05
1.2759e-05
1.38686e-05
1.4456e-05
1.49271e-05
1.79628e-05
4.58879e-05
0.000191903
0.000185817
4.91562e-05
1.88696e-05
1.55872e-05
1.51666e-05
1.54223e-05
1.584e-05
1.66621e-05
1.95511e-05
2.29085e-05
2.78565e-05
1.8721e-05
1.32568e-05
1.24937e-05
1.32213e-05
1.40564e-05
1.50689e-05
1.98825e-05
6.23095e-05
0.000250152
0.00024018
6.43876e-05
2.04539e-05
1.59999e-05
1.56687e-05
1.62681e-05
1.73374e-05
1.97275e-05
2.69626e-05
2.89453e-05
3.64599e-05
2.55303e-05
1.61573e-05
1.41014e-05
1.47697e-05
1.59758e-05
1.75439e-05
2.39596e-05
7.77362e-05
0.000293405
0.000276657
7.99603e-05
2.48374e-05
1.89828e-05
1.83315e-05
1.87624e-05
2.00084e-05
2.37795e-05
3.76171e-05
3.42788e-05
4.43171e-05
4.33924e-05
2.4249e-05
2.5413e-05
2.81871e-05
2.98378e-05
2.98499e-05
3.32612e-05
8.8284e-05
0.000306385
0.000280557
8.3649e-05
3.07847e-05
2.88016e-05
3.00901e-05
3.00405e-05
2.94724e-05
2.96484e-05
4.44891e-05
3.95203e-05
5.27409e-05
5.60476e-05
6.57666e-05
9.04272e-05
0.000107711
0.000112912
0.000108454
0.000113741
0.000162173
0.000273398
0.000253881
0.000137015
9.41431e-05
9.59594e-05
0.000102234
9.4998e-05
7.83823e-05
5.78789e-05
4.82926e-05
4.54028e-05
6.38804e-05
7.72589e-05
8.95255e-05
0.000103053
0.000117819
0.000133996
0.000153127
0.000177765
0.000210126
0.000246104
0.000224982
0.000185236
0.000154363
0.000132795
0.000116546
0.000102341
8.90697e-05
7.69511e-05
6.6227e-05
5.46459e-05
2.54356e-06
3.35162e-06
3.88833e-06
4.43311e-06
5.09137e-06
5.75811e-06
6.61369e-06
7.69789e-06
8.53314e-06
8.63175e-06
9.05065e-06
9.85889e-06
9.38613e-06
8.39258e-06
7.68393e-06
7.18729e-06
6.79809e-06
6.43606e-06
5.70035e-06
4.54379e-06
4.05911e-06
6.2842e-06
7.69519e-06
9.2287e-06
1.09314e-05
1.22186e-05
1.42358e-05
1.63616e-05
3.98417e-05
4.04038e-05
3.98521e-05
4.58671e-05
1.76256e-05
1.59104e-05
1.45343e-05
1.33758e-05
1.19689e-05
1.06344e-05
9.2628e-06
6.65396e-06
4.94577e-06
8.46231e-06
1.02665e-05
1.16789e-05
1.26885e-05
1.33463e-05
1.46473e-05
1.94407e-05
8.36371e-05
7.2843e-05
6.94002e-05
9.46902e-05
2.12324e-05
1.73353e-05
1.61923e-05
1.48479e-05
1.3609e-05
1.2496e-05
1.06482e-05
8.02048e-06
5.53939e-06
8.86938e-06
1.07711e-05
1.2523e-05
1.39492e-05
1.45118e-05
1.58326e-05
2.54534e-05
0.00013324
0.000109559
0.000100664
0.000140125
2.47904e-05
1.72555e-05
1.564e-05
1.44005e-05
1.36962e-05
1.31209e-05
1.32442e-05
1.48786e-05
1.66701e-05
1.22475e-05
1.08836e-05
1.18324e-05
1.36706e-05
1.51833e-05
1.77192e-05
3.52385e-05
0.000191903
0.000151132
0.00013457
0.000186867
2.90953e-05
1.70024e-05
1.52041e-05
1.42409e-05
1.39375e-05
1.44401e-05
1.76536e-05
2.19766e-05
2.62434e-05
1.79286e-05
1.229e-05
1.12713e-05
1.27102e-05
1.4842e-05
1.90664e-05
4.63272e-05
0.000250152
0.00019548
0.000170155
0.000230766
3.40758e-05
1.72456e-05
1.52883e-05
1.45725e-05
1.48002e-05
1.68961e-05
2.45554e-05
2.76684e-05
3.40689e-05
2.39304e-05
1.48319e-05
1.24056e-05
1.36529e-05
1.62944e-05
2.18039e-05
5.69144e-05
0.000293405
0.000236231
0.000202994
0.000258499
4.06804e-05
1.99632e-05
1.7681e-05
1.67422e-05
1.70011e-05
2.03231e-05
3.40319e-05
3.25943e-05
4.10813e-05
3.81165e-05
2.08165e-05
2.0234e-05
2.20831e-05
2.38763e-05
2.80743e-05
6.70749e-05
0.000306385
0.000262057
0.000225186
0.000250446
4.39164e-05
2.62349e-05
2.58306e-05
2.52316e-05
2.44319e-05
2.4667e-05
4.1252e-05
3.73527e-05
4.8614e-05
4.68984e-05
5.07102e-05
6.94611e-05
7.90132e-05
8.18767e-05
9.37792e-05
0.000142606
0.000273398
0.00027753
0.00023813
0.000227614
0.000113599
8.33819e-05
8.38779e-05
7.70789e-05
6.38093e-05
4.61565e-05
4.15772e-05
4.26694e-05
6.02212e-05
7.28068e-05
8.41356e-05
9.79603e-05
0.000113879
0.000133207
0.000159376
0.000196795
0.000246104
0.000259722
0.00022859
0.000212896
0.000169304
0.000138401
0.00011743
0.000100667
8.60628e-05
7.33414e-05
6.32539e-05
5.22758e-05
2.40635e-06
3.1537e-06
3.64173e-06
4.18932e-06
4.80879e-06
5.33862e-06
5.9065e-06
6.7406e-06
7.93379e-06
9.05065e-06
1.20211e-05
1.19482e-05
1.05099e-05
9.10705e-06
8.25944e-06
7.79499e-06
7.30216e-06
6.56756e-06
5.52834e-06
4.38016e-06
3.63173e-06
5.6782e-06
7.01142e-06
8.28044e-06
9.14358e-06
9.68631e-06
1.05415e-05
1.21161e-05
3.37265e-05
3.98521e-05
4.08528e-05
2.79419e-05
1.38028e-05
1.33135e-05
1.32329e-05
1.33869e-05
1.3199e-05
1.13847e-05
9.03271e-06
6.25685e-06
4.38468e-06
7.41237e-06
8.8766e-06
9.99775e-06
1.06625e-05
1.09282e-05
1.13919e-05
1.55783e-05
7.76616e-05
6.94002e-05
7.25007e-05
5.65944e-05
1.63235e-05
1.53494e-05
1.56755e-05
1.59443e-05
1.4868e-05
1.25939e-05
1.0077e-05
7.65959e-06
6.65415e-06
8.25496e-06
1.01073e-05
1.18385e-05
1.25753e-05
1.26853e-05
1.33387e-05
2.19374e-05
0.000128164
0.000100664
0.000111091
8.03e-05
1.80217e-05
1.59859e-05
1.59598e-05
1.50742e-05
1.34939e-05
1.23886e-05
1.29646e-05
1.58766e-05
1.79506e-05
1.26251e-05
1.0679e-05
1.16087e-05
1.33995e-05
1.44991e-05
1.61239e-05
3.16304e-05
0.000185817
0.00013457
0.000158003
0.000104325
1.95649e-05
1.57833e-05
1.51747e-05
1.38722e-05
1.28268e-05
1.34188e-05
1.76427e-05
2.27833e-05
2.65749e-05
1.84999e-05
1.23285e-05
1.1038e-05
1.26566e-05
1.48703e-05
1.82281e-05
4.1787e-05
0.00024018
0.000170155
0.000211701
0.000127209
2.12925e-05
1.56588e-05
1.48147e-05
1.36204e-05
1.32109e-05
1.56405e-05
2.47077e-05
2.82857e-05
3.35261e-05
2.43425e-05
1.47709e-05
1.19106e-05
1.34533e-05
1.67203e-05
2.20676e-05
5.29724e-05
0.000276657
0.000202994
0.000265099
0.00014293
2.51055e-05
1.76834e-05
1.67237e-05
1.54709e-05
1.50405e-05
1.86062e-05
3.39847e-05
3.3105e-05
3.96824e-05
3.75947e-05
1.95716e-05
1.79434e-05
1.94295e-05
2.19879e-05
2.69324e-05
6.35563e-05
0.000280557
0.000225186
0.000308635
0.00013638
3.19113e-05
2.66361e-05
2.59334e-05
2.39555e-05
2.22189e-05
2.27032e-05
3.95898e-05
3.78531e-05
4.6175e-05
4.34184e-05
4.50004e-05
6.02893e-05
6.79663e-05
7.15973e-05
8.38183e-05
0.000131113
0.000253881
0.00023813
0.000316002
0.000176921
0.000102892
9.22024e-05
9.03456e-05
7.82833e-05
6.26807e-05
4.55916e-05
4.19776e-05
4.35398e-05
5.65032e-05
6.75113e-05
7.73301e-05
8.94386e-05
0.000103672
0.000121287
0.000145321
0.000179942
0.000224982
0.00022859
0.000273904
0.000215072
0.000170396
0.000141618
0.000120806
0.000103381
8.81838e-05
7.52724e-05
6.4868e-05
5.36149e-05
2.33053e-06
3.17359e-06
3.80515e-06
4.58362e-06
5.43718e-06
6.00924e-06
6.32822e-06
6.7354e-06
8.00842e-06
9.85889e-06
1.19482e-05
1.31335e-05
1.34794e-05
1.3012e-05
1.21337e-05
1.09688e-05
9.5232e-06
7.66677e-06
6.00463e-06
4.59237e-06
3.16797e-06
5.8501e-06
7.41098e-06
8.39998e-06
9.00495e-06
9.20854e-06
9.22794e-06
1.02429e-05
1.64905e-05
4.58671e-05
2.79419e-05
1.40797e-05
1.42953e-05
1.41281e-05
1.39515e-05
1.38072e-05
1.35368e-05
1.27319e-05
9.30489e-06
5.8455e-06
3.63781e-06
6.92759e-06
8.78914e-06
9.92859e-06
1.05614e-05
1.06565e-05
1.05504e-05
1.17955e-05
2.35468e-05
9.46902e-05
5.65944e-05
1.62703e-05
1.49464e-05
1.50808e-05
1.51105e-05
1.5011e-05
1.43723e-05
1.21684e-05
9.46628e-06
8.34672e-06
7.99135e-06
7.74087e-06
9.82667e-06
1.14722e-05
1.2062e-05
1.20869e-05
1.20356e-05
1.4151e-05
3.45566e-05
0.000140125
8.03e-05
1.84364e-05
1.51456e-05
1.53314e-05
1.52003e-05
1.45049e-05
1.30525e-05
1.19757e-05
1.31907e-05
1.72482e-05
1.93407e-05
1.30051e-05
1.06433e-05
1.16041e-05
1.28227e-05
1.3347e-05
1.37796e-05
1.74563e-05
4.91562e-05
0.000186867
0.000104325
2.08509e-05
1.5075e-05
1.51338e-05
1.47754e-05
1.36458e-05
1.23765e-05
1.32e-05
1.82887e-05
2.39954e-05
2.75704e-05
1.92695e-05
1.2583e-05
1.1212e-05
1.20901e-05
1.32047e-05
1.44243e-05
1.98317e-05
6.43876e-05
0.000230766
0.000127209
2.36102e-05
1.49639e-05
1.48435e-05
1.4438e-05
1.33484e-05
1.27191e-05
1.55158e-05
2.58267e-05
2.94906e-05
3.43592e-05
2.53753e-05
1.51832e-05
1.22214e-05
1.32812e-05
1.54756e-05
1.79079e-05
2.53208e-05
7.99603e-05
0.000258499
0.00014293
2.84613e-05
1.67089e-05
1.62548e-05
1.5928e-05
1.50114e-05
1.45442e-05
1.82793e-05
3.58352e-05
3.44206e-05
4.05655e-05
3.97002e-05
2.03914e-05
1.98411e-05
2.23345e-05
2.5134e-05
2.66929e-05
3.114e-05
8.3649e-05
0.000250446
0.00013638
3.71436e-05
2.9994e-05
2.98e-05
2.80957e-05
2.56425e-05
2.35193e-05
2.36981e-05
3.99839e-05
3.93881e-05
4.73058e-05
4.70251e-05
5.18391e-05
7.06864e-05
8.41631e-05
9.07705e-05
9.01007e-05
9.46774e-05
0.000137015
0.000227614
0.000176921
0.000108419
0.000120814
0.000123723
0.000108623
9.0751e-05
7.25183e-05
5.34169e-05
4.67227e-05
4.5681e-05
5.75076e-05
6.88961e-05
7.91922e-05
9.07908e-05
0.000103873
0.000118563
0.000135865
0.000157577
0.000185236
0.000212896
0.000215072
0.000182713
0.000158637
0.000138599
0.000120702
0.000104697
9.04402e-05
7.80883e-05
6.72027e-05
5.55353e-05
2.35117e-06
3.6358e-06
4.5416e-06
5.66652e-06
6.57171e-06
6.9987e-06
7.04779e-06
7.05164e-06
7.91756e-06
9.38613e-06
1.05099e-05
1.34794e-05
1.59062e-05
1.70992e-05
1.77161e-05
1.7856e-05
1.74166e-05
1.61521e-05
1.34545e-05
9.45814e-06
3.37139e-06
7.232e-06
8.85134e-06
9.69565e-06
1.0033e-05
9.93541e-06
9.66307e-06
1.01654e-05
1.51668e-05
1.76256e-05
1.38028e-05
1.42953e-05
1.61889e-05
1.73132e-05
1.78375e-05
1.79976e-05
1.76223e-05
1.62962e-05
1.32694e-05
7.40782e-06
4.20458e-06
8.01103e-06
1.00987e-05
1.12569e-05
1.17925e-05
1.17446e-05
1.13545e-05
1.16986e-05
1.63571e-05
2.12324e-05
1.63235e-05
1.49464e-05
1.60283e-05
1.67666e-05
1.70019e-05
1.68351e-05
1.60785e-05
1.43406e-05
1.15559e-05
1.04116e-05
9.85893e-06
9.29842e-06
1.08718e-05
1.21652e-05
1.2866e-05