/*--------------------------------*- C++ -*----------------------------------*\
  =========                 |
  \\      /  F ield         | OpenFOAM: The Open Source CFD Toolbox
   \\    /   O peration     | Website:  https://openfoam.org
    \\  /    A nd           | Version:  8
     \\/     M anipulation  |
\*---------------------------------------------------------------------------*/
FoamFile
{
    version     2.0;
    format      ascii;
    class       surfaceScalarField;
    location    "2000";
    object      phi;
}
// * * * * * * * * * * * * * * * * * * * * * * * * * * * * * * * * * * * * * //

dimensions      [1 0 -1 0 0 0 0];

internalField   nonuniform List<scalar> 
11200
(
0.00323717
-0.00646121
0.00323717
0.00495331
-0.0045655
0.00284935
0.00532307
-0.00263541
0.00226564
0.00418905
-0.000592394
0.00172642
0.00172036
0.00117033
0.00129835
-0.000458893
0.00128774
0.00089152
-0.000573644
-5.11108e-05
0.000165862
-0.00019353
-0.000289411
-9.06992e-05
0.000180287
-0.000192599
-0.000181219
0.000480635
-0.00019615
-0.000104199
0.000664691
-0.000172216
-1.1842e-05
0.00072032
-0.00015659
0.00010096
0.000785746
-0.00022159
0.000156162
-0.000306757
0.000152173
0.000940342
-0.00326303
0.00169411
0.00126216
-0.00537318
0.000773109
0.00133704
-0.0062868
-0.000651211
0.00156483
-0.00582208
-0.00234712
0.0018824
-0.00390627
-0.00411778
0.00220196
-0.00637699
0.00247072
0.00154667
-0.00955456
0.00154667
0.00244689
-0.00699068
0.00152497
0.00271451
-0.00411703
0.00121399
0.00215427
-0.000864296
0.000832144
0.00117118
0.00148863
0.000664784
0.000629796
0.00123899
0.000590135
1.0461e-05
0.000218907
0.000349313
-0.000143787
-1.35406e-05
-0.000121625
0.000165954
-1.53908e-05
-0.000486952
0.000390724
-6.97627e-06
-0.000413947
0.000457795
3.6193e-05
-0.000275483
0.000291032
6.64381e-05
-5.62679e-05
-0.000204019
5.15016e-06
0.000268308
-0.000748346
0.000208995
0.000487499
-0.00123642
0.00132523
0.000856955
-0.00228565
0.00103549
0.000786855
-0.00298052
-0.000903017
0.000946667
-0.00279786
-0.00373021
0.00120043
-0.00181091
-0.0064437
0.00133897
-0.00957548
0.00138757
0.000660523
-0.0108756
0.000660523
0.000844677
-0.00814245
0.000967615
0.000814618
-0.00502562
0.000938649
0.00106106
-0.00186184
0.000751097
0.00127704
0.000648099
0.000624562
0.0013002
0.000632086
0.000583743
0.00078909
0.000263779
0.000466236
0.000265553
0.000237708
0.000272285
0.000218832
0.000198706
-0.000167378
0.000446071
0.000146844
-0.000381061
0.000551854
0.000177909
-0.000247501
0.000275061
0.000218966
0.000124263
-0.000357605
0.000162868
0.000474944
-0.000729078
2.27576e-05
0.000557707
-0.00050973
0.000326094
0.000779794
-0.000324879
-2.99412e-05
0.000880586
-0.000340909
-0.00192225
0.00103526
-0.0006344
-0.00457083
0.00113411
-0.000534282
-0.00758641
0.00104259
-0.0109503
0.000840547
0.000190631
-0.0112569
0.000190631
-0.000118097
-0.00860653
0.000772806
-0.000383068
-0.00575209
0.00099144
1.41339e-05
-0.00335622
0.00109717
0.000798048
-0.00128243
0.00114661
0.00111599
-0.00073983
0.00105398
0.000889384
-0.000481291
0.000971671
0.000519359
-0.000199064
0.000806797
0.000302233
-4.73001e-05
0.000463131
0.000377483
-0.000113425
0.00018502
0.000545
-0.000304828
0.000315219
0.000584854
-0.000462685
0.000641797
0.000460728
-0.000653008
0.000940003
0.000300096
-0.000851635
0.00103502
0.000630906
-0.0011309
0.00112618
0.00108435
-0.00180967
0.00132629
0.00101888
-0.00325295
0.00139616
0.000611748
-0.00537805
0.00121435
0.000183086
-0.0081383
0.000980554
-0.0113299
0.000562658
-9.7981e-05
-0.0110609
-9.7981e-05
-0.000697629
-0.00869873
0.000691839
-0.00111472
-0.00634904
0.00101404
-0.00122154
-0.00449961
0.00125021
-0.000813637
-0.00312327
0.00143293
-0.000538931
-0.00243459
0.00142005
-0.000396244
-0.00198469
0.00136071
-0.000238003
-0.00160692
0.00124961
-3.26227e-05
-0.0013381
0.00108542
0.000229553
-0.00133727
0.000961671
0.000588626
-0.00166543
0.00100153
0.000917643
-0.00192221
0.0011305
0.00116835
-0.00214991
0.00124619
0.00140433
-0.00239921
0.0013116
0.00168311
-0.00275314
0.00134346
0.0018646
-0.00337455
0.00138338
0.00172136
-0.0044531
0.00134339
0.00124891
-0.00608189
0.00117628
0.00053813
-0.00836178
0.000934258
-0.0111601
0.000368346
-0.000282382
-0.0104962
-0.000282382
-0.00107368
-0.00851743
0.000609993
-0.0016326
-0.00670433
0.000914211
-0.00183899
-0.00538558
0.00109236
-0.00169235
-0.00447825
0.00120833
-0.00143224
-0.0039311
0.0012364
-0.00108225
-0.00353326
0.00119857
-0.000636176
-0.00319583
0.00114283
-0.000122171
-0.00293156
0.00107945
0.000376962
-0.00288172
0.00104531
0.000843319
-0.00315921
0.00102742
0.00127556
-0.00338396
0.0010295
0.00166353
-0.00357993
0.00104206
0.00200507
-0.00380605
0.00106529
0.00226684
-0.00410908
0.00109416
0.00236166
-0.00457208
0.00110271
0.00215916
-0.00533103
0.00108042
0.00161096
-0.00651705
0.000983362
0.000730712
-0.00829501
0.000813478
-0.0105917
0.000162306
-0.000476856
-0.00954245
-0.000476856
-0.00143131
-0.00798364
0.000420667
-0.00209608
-0.00668691
0.000647353
-0.00235685
-0.00583373
0.000708914
-0.00225308
-0.00527508
0.000693055
-0.00191996
-0.00493448
0.000670259
-0.00143355
-0.00468364
0.000663966
-0.000837874
-0.00444709
0.000655587
-0.000179434
-0.00422307
0.000633067
0.000418873
-0.00413031
0.000650279
0.000939017
-0.00431145
0.000632093
0.00145374
-0.00448233
0.000583648
0.00194766
-0.00462443
0.000550569
0.00238388
-0.00476752
0.000525251
0.00269985
-0.00494641
0.00052137
0.00279912
-0.00523042
0.000559062
0.00255984
-0.00572463
0.000632879
0.00192723
-0.0065281
0.000643664
0.000903349
-0.00782657
0.000555434
-0.00958674
-0.00010161
-0.000797439
-0.00794758
-0.000797439
-0.00192126
-0.00676449
-9.53377e-05
-0.00267487
-0.00593545
2.13249e-06
-0.00295979
-0.00547993
-6.88779e-05
-0.00283268
-0.00521566
-0.000186539
-0.00240969
-0.00506612
-0.000291345
-0.00177435
-0.00495247
-0.000366507
-0.00100851
-0.00482704
-0.000385906
-0.000217747
-0.00467271
-0.000341124
0.000414392
-0.00454498
-0.00021748
0.000974024
-0.00463456
-0.000236529
0.00160224
-0.00474802
-0.000362537
0.00223979
-0.00482242
-0.000439561
0.0027981
-0.00488319
-0.000442651
0.00319591
-0.00495327
-0.000390948
0.00333111
-0.00507827
-0.000287367
0.0030808
-0.00532484
-0.000149483
0.00236272
-0.00577485
-3.5177e-05
0.00119314
-0.00661793
-3.90606e-05
-0.00794785
-0.000445747
-0.0014098
-0.00512798
-0.0014098
-0.00273093
-0.00445313
-0.000990228
-0.00352748
-0.00411585
-0.00102305
-0.00379505
-0.00402885
-0.00118352
-0.00361466
-0.0040326
-0.00136345
-0.0030959
-0.00408049
-0.00150441
-0.00231854
-0.0041206
-0.00160924
-0.0013633
-0.00412112
-0.00166116
-0.000354261
-0.00405224
-0.00162951
0.000423872
-0.00391932
-0.00140379
0.00110854
-0.00395248
-0.00136675
0.00191838
-0.00401935
-0.00153851
0.00272389
-0.00402803
-0.0015999
0.00341468
-0.00399072
-0.00158326
0.00390612
-0.00393495
-0.00150976
0.00409962
-0.00388758
-0.00138419
0.00387173
-0.0038874
-0.00120955
0.00310917
-0.00398365
-0.00102864
0.00174941
-0.0043373
-0.000920875
-0.00509953
-0.00109891
-0.00256399
-0.00256399
-0.00418801
-0.00282911
-0.00496358
-0.00334029
-0.00516088
-0.00383155
-0.00489926
-0.00429423
-0.00426898
-0.00471077
-0.00333424
-0.00505534
-0.00214175
-0.00531361
-0.000774218
-0.00541978
0.000456347
-0.00514989
0.00145986
-0.004956
0.00259045
-0.00514995
0.00362632
-0.0050639
0.00447331
-0.00483771
0.00507727
-0.00453892
0.00535754
-0.00416785
0.0052058
-0.00373567
0.00447435
-0.00325219
0.00284531
-0.00270827
-0.00225422
0.00284935
-0.0045655
0.00495331
0.00453649
-0.00337429
0.00453649
0.00496474
-0.00185233
0.00368973
0.00406298
-0.000125656
0.00275383
0.00204996
0.00145663
0.00185473
1.85504e-05
0.00177364
0.0011493
-0.000327091
8.43381e-05
0.000427164
-7.54481e-06
-0.000284562
-0.000125682
0.000176886
-0.00019726
-0.000168391
0.000343183
-0.000192259
-7.82386e-05
0.00040236
-0.000183214
0.000112194
0.000369683
-0.000215146
0.000348782
0.000201669
-0.000205273
0.000529447
-0.00111842
0.000692823
0.00156762
-0.00363847
0.00178081
0.0020014
-0.00547519
0.000885478
0.00228828
-0.00621041
-0.00047981
0.00277986
-0.00567236
-0.0020215
0.00336584
-0.00373884
-0.00367376
0.0039422
-0.00553012
0.004262
0.00152497
-0.00699068
0.00244689
0.00257513
-0.00547461
0.00257513
0.0029593
-0.00318365
0.00216114
0.00243417
-0.000254328
0.00148595
0.00169668
0.00173169
0.00112722
0.00134363
0.00174634
0.000970484
0.000636397
0.000553243
0.000587636
0.000282524
-3.71008e-05
-1.52159e-05
0.000189681
-6.25029e-05
-0.000528869
8.54837e-05
7.35786e-06
-0.000509369
-0.000133214
3.27811e-05
-0.000272783
-0.000490762
-2.73612e-05
0.000113492
-0.000939511
-9.64395e-05
0.00060822
-0.00136434
0.000582773
0.00102238
-0.00189976
0.00177627
0.00139692
-0.00286449
0.00126644
0.00137062
-0.00349632
-0.000516065
0.00161475
-0.00320316
-0.00315962
0.00204539
-0.00204539
-0.00579887
0.00230631
-0.00836497
0.00217703
0.000967615
-0.00814245
0.000844677
0.00152731
-0.00659401
0.00152731
0.00171012
-0.00401639
0.00158857
0.00180965
-0.00088656
0.00128379
0.00179161
0.00131638
0.00105791
0.00171027
0.00140559
0.00100585
0.00124348
0.000705482
0.000780786
0.000735425
0.000370243
0.000372991
0.000431276
0.000287953
-0.000213688
0.000284553
0.000305653
-0.000532635
4.98159e-05
0.000331587
-0.000311572
-0.000427459
0.000341888
0.000232286
-0.000968018
0.000268144
0.000650916
-0.00122525
0.000508516
0.00088919
-0.00108813
0.00125313
0.00116582
-0.00120075
0.00104244
0.0012172
-0.00145312
-0.000625115
0.00139668
-0.00156148
-0.00358361
0.00166646
-0.00110854
-0.00678231
0.00157309
-0.00959198
0.000959008
0.000772806
-0.00860653
-0.000118097
0.000994153
-0.0070367
0.000994153
0.000933294
-0.00441732
0.00145322
0.00112249
-0.00146162
0.00148303
0.00156647
0.000632888
0.00138612
0.00170265
0.000983091
0.00134029
0.00137228
0.000818989
0.00118853
0.000889372
0.000779507
0.000880445
0.000542428
0.000752763
0.000345263
0.000453101
0.000708406
-0.000128409
0.000434005
0.000688257
-2.23566e-05
0.000180909
0.000699376
0.000537402
-0.000296336
0.00069272
0.00099267
-0.000612653
0.000708366
0.00115149
-0.000372249
0.000822585
0.00131631
-8.74422e-05
0.000545384
0.00153854
-0.000176487
-0.000900485
0.00176058
-0.000596683
-0.00362595
0.00167689
-0.000626849
-0.00703938
0.00126778
-0.00990293
0.000246767
0.000691839
-0.00869873
-0.000697629
0.000680878
-0.00701479
0.000680878
0.000380061
-0.00446702
0.00136455
0.000332985
-0.00181272
0.00164838
0.000665778
-4.78144e-05
0.00178084
0.000764279
0.000591734
0.00171291
0.000577745
0.000809225
0.00155701
0.000338011
0.000990886
0.00127796
0.000231735
0.00107505
0.0008694
0.000347163
0.00103709
0.000517558
0.000525126
0.000944559
0.000567261
0.00056051
0.000876355
0.000918134
0.000433649
0.000811431
0.00125434
0.000322586
0.000699403
0.00143162
0.000436327
0.000486555
0.00156574
0.000607678
-2.76956e-05
0.00178511
0.000429883
-0.00128408
0.00190478
-6.76004e-05
-0.00362592
0.00167373
-0.000372951
-0.00687202
0.00107225
-0.00969887
-0.000208669
0.000609993
-0.00851743
-0.00107368
0.000428138
-0.00665108
0.000428138
-3.06386e-05
-0.00428592
0.00119189
-0.000233255
-0.00206693
0.00154918
-0.000164844
-0.000629219
0.00172132
-7.609e-05
4.13078e-05
0.00169807
-9.33639e-05
0.000472298
0.00155277
-7.27862e-05
0.000764118
0.00134902
7.12149e-05
0.000919469
0.00109103
0.000361446
0.000906804
0.000885362
0.000666492
0.000777681
0.000889249
0.000855259
0.000671356
0.00104573
0.000926317
0.000563786
0.00121864
0.000963061
0.000376993
0.00135095
0.00104184
2.02531e-05
0.00148169
0.001012
-0.000527301
0.00163216
0.000732514
-0.00166303
0.00173884
0.000230321
-0.00364889
0.00150852
-0.000196786
-0.00646644
0.000835
-0.0091737
-0.000559657
0.000420667
-0.00798364
-0.00143131
9.34624e-05
-0.00599667
9.34624e-05
-0.000429994
-0.00395785
0.000842729
-0.000659802
-0.00231965
0.00119143
-0.000666374
-0.00122348
0.00129389
-0.000568696
-0.000645692
0.00125958
-0.000400927
-0.000238639
0.00120713
-0.000202959
9.42195e-05
0.00112751
6.18673e-05
0.000301717
0.000985989
0.000355166
0.000408434
0.000855347
0.00064706
0.000289935
0.000827941
0.000892834
0.000122285
0.000886941
0.00107938
-3.27912e-05
0.000960599
0.00126421
-0.000281528
0.000998936
0.00137888
-0.000613909
0.00104086
0.00135739
-0.00110748
0.00116072
0.00106371
-0.00204099
0.00130451
0.000544907
-0.00358049
0.00109406
4.98628e-05
-0.00585539
0.000439423
-0.00830012
-0.000925321
-9.53377e-05
-0.00676449
-0.00192126
-0.000577518
-0.00503232
-0.000577518
-0.0011283
-0.00352508
0.000120141
-0.00138626
-0.00246306
0.000332495
-0.00137103
-0.00177044
0.00034518
-0.00119239
-0.00137989
0.000264209
-0.000874206
-0.00112593
0.000202596
-0.000458506
-0.000912908
0.000205518
-2.83724e-05
-0.000722572
0.000253029
0.000334036
-0.000530772
0.000359315
0.000683059
-0.00059869
0.000303069
0.00107287
-0.000793215
0.00016315
0.00145088
-0.000935682
8.53103e-05
0.00175677
-0.00108915
5.90767e-05
0.00195802
-0.00129654
9.04336e-05
0.00197551
-0.00162501
0.000212681
0.00170022
-0.0022359
0.000320712
0.00111557
-0.00328269
0.000251665
0.000411183
-0.00489937
-0.000290696
-0.00689749
-0.0014372
-0.000990228
-0.00445313
-0.00273093
-0.00189372
-0.00322534
-0.00189372
-0.00246667
-0.00244052
-0.00153466
-0.00261535
-0.00201652
-0.00148139
-0.00241998
-0.00177401
-0.00155525
-0.00203113
-0.00165347
-0.00161968
-0.00149125
-0.00155539
-0.00171967
-0.000856168
-0.00144091
-0.00176824
-0.000211682
-0.00128517
-0.00171141
0.000323773
-0.00102211
-0.00144791
0.000834836
-0.00106473
-0.00141178
0.00139685
-0.0012815
-0.00161224
0.00194704
-0.00138172
-0.00170405
0.00244147
-0.00145175
-0.00171511
0.00281614
-0.00152838
-0.00165259
0.00300027
-0.00163908
-0.00155425
0.0028633
-0.00186492
-0.00144357
0.00227494
-0.00229465
-0.00142831
0.00124164
-0.00311816
-0.00166879
-0.00446431
-0.00229045
-0.00282911
-0.00418801
-0.00444178
-0.00444178
-0.00518905
-0.00503354
-0.00536634
-0.00567079
-0.00511966
-0.00631492
-0.0045435
-0.0069404
-0.00368731
-0.00746693
-0.00257908
-0.00786276
-0.00125314
-0.00803089
0.000273501
-0.00769865
0.00168436
-0.00743159
0.00288696
-0.00763405
0.00389943
-0.0074581
0.00469863
-0.00708865
0.00525522
-0.0066239
0.00550842
-0.00606013
0.00535473
-0.0054469
0.00462019
-0.0048123
0.00297268
-0.00417891
-0.00374586
0.00226564
-0.00263541
0.00532307
0.00368973
-0.00185233
0.00496474
0.0040375
-0.000695532
0.0040375
0.00320702
0.000734618
0.00284969
0.00147749
0.00184613
0.00173813
-7.61387e-06
0.00176478
0.000869633
-0.000132597
-1.86615e-05
0.000570803
8.77624e-05
-0.000323302
-2.27378e-05
0.000185886
-0.000231688
-3.48271e-05
0.000219042
-0.000205108
9.37134e-05
0.000177513
-0.000207696
0.000361418
0.000140326
-0.000237378
0.000623345
-1.66321e-05
-0.00018453
0.000870929
-0.00130147
0.000948361
0.0019041
-0.00347871
0.00182245
0.0023562
-0.00506276
0.00104849
0.00282384
-0.00563462
-0.000208875
0.00356059
-0.00506275
-0.00153976
0.00433372
-0.00324822
-0.00287307
0.00500074
-0.0041998
0.00521359
0.00121399
-0.00411703
0.00271451
0.00216114
-0.00318365
0.0029593
0.0025501
-0.00147345
0.0025501
0.00221487
0.000718786
0.00183701
0.00166148
0.00213711
0.00138963
0.00137033
0.0017935
0.00123293
0.000755771
0.000517076
0.000666455
0.000427819
-0.000105989
9.54203e-05
0.000150426
-0.000123384
-0.000359781
-0.000228335
-3.13327e-06
-0.000332586
-0.000620121
-3.07021e-05
-5.79944e-05
-0.000891716
-0.000195239
0.000342944
-0.00126973
-7.08896e-05
0.000872589
-0.00160053
0.000873026
0.00142851
-0.00214022
0.00203248
0.00172659
-0.00295667
0.0014811
0.00175446
-0.00346425
-0.000148465
0.00206192
-0.00307248
-0.00246628
0.00258014
-0.00187831
-0.00456545
0.00280452
-0.00631337
0.00241228
0.000938649
-0.00502562
0.000814618
0.00158857
-0.00401639
0.00171012
0.00197557
-0.00224745
0.00197557
0.00210636
0.000138131
0.00173366
0.00202483
0.00180567
0.00147087
0.00181201
0.00166421
0.00134796
0.00130718
0.000810748
0.000991949
0.000787809
0.0003214
0.000464964
0.000399381
0.000203588
-0.000152235
-1.91658e-06
0.000281877
-0.00041635
-0.000465071
0.00027058
-0.000149702
-0.000941509
0.000151244
0.000362239
-0.00138419
0.000199032
0.000823678
-0.00158024
0.000769957
0.0011883
-0.00156884
0.00174638
0.00144052
-0.00183686
0.00152101
0.00144531
-0.00204644
-0.000181656
0.00163946
-0.00191293
-0.00282412
0.00189077
-0.00121425
-0.00534191
0.00165088
-0.00722964
0.00066102
0.00099144
-0.00575209
-0.000383068
0.00145322
-0.00441732
0.000933294
0.00167176
-0.00268452
0.00167176
0.00188523
-0.00038849
0.00179618
0.00207254
0.00131906
0.00168542
0.00198756
0.00150631
0.00158317
0.0015604
0.00110105
0.00132539
0.00101926
0.000830679
0.000912302
0.0006036
0.000676362
0.000288145
0.000388577
0.00060537
-0.00023688
0.000128396
0.000614124
-0.000105723
-0.000369914
0.000656062
0.00053089
-0.000940935
0.000747995
0.00101473
-0.00121987
0.000960521
0.00123985
-0.00106051
0.00146974
0.0014336
-0.000983751
0.00141679
0.001566
-0.00114971
-3.07154e-05
0.00177559
-0.00125864
-0.00278494
0.00174663
-0.00092244
-0.00550765
0.00109732
-0.0075784
-0.000326917
0.00101404
-0.00634904
-0.00111472
0.00136455
-0.00446702
0.000380061
0.0013837
-0.00272282
0.0013837
0.00144335
-0.000625199
0.00182544
0.00161289
0.00100304
0.00192731
0.0015398
0.00143472
0.00185758
0.00119292
0.00136237
0.00164256
0.000764192
0.00126764
0.00126973
0.000467504
0.00113424
0.000708213
0.000406082
0.00101011
0.000174235
0.000384308
0.00101401
0.000189149
0.000124822
0.00109369
0.000739985
-0.000272263
0.00119277
0.00120664
-0.000540273
0.00123452
0.00142563
-0.000475922
0.00137777
0.00159336
-0.000385692
0.0012972
0.00181447
-0.000552987
4.08435e-05
0.00200052
-0.000832784
-0.00254327
0.00171185
-0.000749141
-0.0053072
0.000788159
-0.00767432
-0.000861885
0.000914211
-0.00670433
-0.0016326
0.00119189
-0.00428592
-3.06386e-05
0.00107779
-0.00249462
0.00107779
0.000950827
-0.000595026
0.00164596
0.000967408
0.000819671
0.00188811
0.000884228
0.00134907
0.0018669
0.000664559
0.00143948
0.00169532
0.000432138
0.00144079
0.00140829
0.000308396
0.00136094
0.00098806
0.000361382
0.00126813
0.000574351
0.000473328
0.00126223
0.00052908
0.000437044
0.00131155
0.000864159
0.000271477
0.00136841
0.00120857
0.000114873
0.00133919
0.00140289
0.000103493
0.00129507
0.00157576
8.81674e-05
0.00112905
0.00181562
-0.000127274
2.27305e-05
0.00197239
-0.000525607
-0.00219594
0.00155952
-0.000573421
-0.00489524
0.000470851
-0.00755842
-0.00124898
0.000647353
-0.00668691
-0.00209608
0.000842729
-0.00395785
-0.000429994
0.00068473
-0.00217863
0.00068473
0.000488733
-0.000449762
0.00124216
0.000416989
0.000699466
0.00148583
0.000363736
0.00117107
0.00149082
0.000291792
0.0013169
0.00140165
0.000240308
0.00137194
0.00124785
0.000247679
0.00134788
0.000991676
0.000342094
0.00131902
0.000710043
0.000487271
0.00131563
0.000629361
0.000564303
0.00132098
0.000800471
0.000563102
0.00132994
0.00100027
0.000542058
0.00125607
0.00110309
0.000540096
0.00113019
0.0012077
0.000516053
0.000898069
0.00141575
0.00023758
3.96069e-05
0.00156611
-0.000184658
-0.00185918
0.00117954
-0.000274926
-0.00431416
-5.13923e-05
-0.00709816
-0.0016605
2.13249e-06
-0.00593545
-0.00267487
0.000120141
-0.00352508
-0.0011283
-0.000113684
-0.00171098
-0.000113684
-0.000146319
-0.00049909
0.000414455
-6.548e-05
0.00029819
0.000665613
1.7772e-05
0.000697547
0.000654482
9.28233e-05
0.000840741
0.000603705
0.000181361
0.000929556
0.000559357
0.000293207
0.000991044
0.000498019
0.000357902
0.00115937
0.000454267
0.000437673
0.00115188
0.000387037
0.000576129
0.000989599
0.000356076
0.000673778
0.000933473
0.000384122
0.000772493
0.000833087
0.000383343
0.000872747
0.000680805
0.000439558
0.000940442
0.000424029
0.000619023
0.000874644
-0.00027445
0.000700565
0.000533184
-0.00153479
0.000268727
0.000268074
-0.00353504
-0.000804707
-0.00607139
-0.00219589
-0.00102305
-0.00411585
-0.00352748
-0.00153466
-0.00244052
-0.00246667
-0.00169631
-0.00138768
-0.00169631
-0.00158607
-0.000773791
-0.00131693
-0.00119365
-0.000340916
-0.00130858
-0.000762473
-6.82976e-05
-0.00128501
-0.000388099
6.6812e-05
-0.00132011
-6.31259e-05
0.000181126
-0.00134479
0.000185847
0.000331957
-0.0013013
0.000346485
0.000643961
-0.00109314
0.000501936
0.000618417
-0.00103376
0.000729235
0.000331073
-0.00118102
0.00102018
0.000200335
-0.00126186
0.00135201
0.000100628
-0.00131448
0.0017179
-2.70516e-05
-0.00131063
0.00207164
-0.000245956
-0.00123801
0.0021542
-0.000644244
-0.00115633
0.00191928
-0.00127113
-0.00145705
0.00121739
-0.00235998
-0.00214197
-0.00409411
-0.00305035
-0.00334029
-0.00496358
-0.00503354
-0.00518905
-0.00572738
-0.00572738
-0.0058296
-0.00634236
-0.00553231
-0.00695314
-0.00492617
-0.00761484
-0.00406831
-0.00825798
-0.0029467
-0.00880325
-0.00154634
-0.00909929
0.000208865
-0.0088099
0.0018762
-0.0084805
0.00318735
-0.00861414
0.00422931
-0.00829973
0.00502868
-0.00778739
0.00558791
-0.00721018
0.0058735
-0.00659168
0.00577887
-0.00599652
0.00508884
-0.0053934
0.00337926
-0.00482932
-0.0044607
0.00172642
-0.000592394
0.00418905
0.00275383
-0.000125656
0.00406298
0.00284969
0.000734618
0.00320702
0.00203808
0.00162323
0.00203808
0.000523564
0.00219182
0.00106082
-0.000123214
0.0010197
0.000496726
0.000197878
-0.000263412
0.000513119
0.000238533
-0.000338731
0.000275337
0.000199368
-0.000258664
0.000263002
8.3174e-05
-0.000218631
0.00042854
-6.42716e-05
-0.000199596
0.000708456
-0.000102062
-0.000230893
0.00089202
-0.000146227
-0.000205688
0.00112077
-0.00109944
0.00093884
0.00191848
-0.00291167
0.00189144
0.00227698
-0.00424062
0.00135408
0.00279872
-0.00472104
0.000370234
0.00367078
-0.0042058
-0.000754408
0.00457288
-0.00265386
-0.00178483
0.00523364
-0.00276386
0.00532357
0.000832144
-0.000864296
0.00215427
0.00148595
-0.000254328
0.00243417
0.00183701
0.000718786
0.00221487
0.00170284
0.00189156
0.00170284
0.00146617
0.00242897
0.00138915
0.00111314
0.00133866
0.001267
0.000697908
0.000153288
0.000664984
0.000451023
-0.000281137
0.000284709
3.4971e-05
-0.000183314
-1.90816e-05
-0.000530703
-3.03652e-05
4.48181e-05
-0.00093962
-0.000132248
0.000283572
-0.00111329
-0.000318618
0.00060434
-0.00139218
-0.000120819
0.0010666
-0.00161859
0.000940975
0.00165279
-0.00203054
0.00218163
0.00184836
-0.00264887
0.00184712
0.00187973
-0.00298276
0.000538073
0.00222797
-0.00259903
-0.00129052
0.00273252
-0.00155408
-0.00289087
0.0028656
-0.00419123
0.00228558
0.000751097
-0.00186184
0.00106106
0.00128379
-0.00088656
0.00180965
0.00173366
0.000138131
0.00210636
0.00192114
0.0015166
0.00192114
0.00193448
0.00218695
0.00169955
0.00166206
0.0014997
0.00145934
0.00117227
0.000599733
0.00103528
0.000688534
0.000119098
0.000548465
0.000229
7.26805e-05
5.13007e-05
-0.000319191
0.000214518
-0.000113046
-0.000833865
9.76208e-05
0.0001351
-0.00123559
-9.72299e-05
0.000542577
-0.0015955
6.29665e-05
0.000999799
-0.00175961
0.000867135
0.00142625
-0.00178724
0.00199982
0.00164996
-0.00203452
0.00190618
0.00163353
-0.00212812
0.000482429
0.0017887
-0.00182666
-0.00159777
0.00189655
-0.0011253
-0.00340491
0.00146355
-0.00495727
0.000301761
0.00109717
-0.00335622
1.41339e-05
0.00148303
-0.00146162
0.00112249
0.00179618
-0.00038849
0.00188523
0.00207145
0.000966041
0.00207145
0.00218389
0.00179795
0.00196198
0.001982
0.00153738
0.00174739
0.00152184
0.000979219
0.00140606
0.0009795
0.000626774
0.000946962
0.000529541
0.000465451
0.000345331
0.000141378
0.000454901
-8.91031e-05
-0.000356279
0.000407323
8.22289e-05
-0.000908842
0.000369958
0.000616263
-0.00140191
0.000485829
0.00108493
-0.00162012
0.000928215
0.00139698
-0.0015359
0.00174997
0.00159923
-0.00154997
0.00184123
0.00164501
-0.00159388
0.000565995
0.00173594
-0.00144247
-0.00158748
0.00158494
-0.000993533
-0.00350433
0.000747804
-0.00557276
-0.000704966
0.00125021
-0.00449961
-0.00122154
0.00164838
-0.00181272
0.000332985
0.00182544
-0.000625199
0.00144335
0.00198518
0.000646561
0.00198518
0.00206811
0.00155188
0.00209045
0.0018874
0.00160949
0.00196618
0.00148097
0.00133473
0.00169348
0.00100177
0.0010948
0.0012809
0.000610954
0.000888064
0.000676412
0.000367491
0.000753359
0.000119238
5.05387e-05
0.000751202
0.000162219
-0.000429065
0.000844514
0.000745029
-0.000907667
0.000951816
0.00121925
-0.00118155
0.0011479
0.00147982
-0.00113699
0.00163735
0.00166142
-0.00107412
0.00181163
0.0017812
-0.00111162
0.000758996
0.00184501
-0.00110799
-0.00134489
0.00146563
-0.000859075
-0.00335605
0.000390969
-0.00607597
-0.00121774
0.00109236
-0.00538558
-0.00183899
0.00154918
-0.00206693
-0.000233255
0.00164596
-0.000595026
0.000950827
0.00165796
0.000622557
0.00165796
0.00166289
0.00147943
0.00195564
0.00151124
0.00167841
0.00194962
0.00121209
0.00156312
0.00176608
0.000866273
0.00140786
0.00144104
0.000570063
0.00122256
0.00094977
0.000383944
0.00107815
0.000435673
0.000217445
0.00108045
0.000366323
-7.61715e-05
0.00118925
0.000813038
-0.000411347
0.00127332
0.00122224
-0.000636428
0.00132463
0.00145123
-0.000634521
0.00157973
0.00163147
-0.000566309
0.00176029
0.00179875
-0.000630989
0.000954402
0.00184167
-0.000756811
-0.000981361
0.00132181
-0.000640818
-0.00310559
0.000104396
-0.00635862
-0.00160715
0.000708914
-0.00583373
-0.00235685
0.00119143
-0.00231965
-0.000659802
0.00124216
-0.000449762
0.000488733
0.00117466
0.000757556
0.00117466
0.00117807
0.00140636
0.00155549
0.00111366
0.00158798
0.00164567
0.000964136
0.00153591
0.00157838
0.000771897
0.00144821
0.00139973
0.000566401
0.00133449
0.00108524
0.000384727
0.00126609
0.000703776
0.000255408
0.00126031
0.000578817
9.29205e-05
0.0012912
0.000860999
-9.36331e-05
0.00131994
0.0011402
-0.00022231
0.00128673
0.00126966
-0.000195354
0.00138053
0.00137995
-9.81483e-05
0.00153158
0.00154725
-0.000129795
0.000972988
0.00157916
-0.000356182
-0.000601066
0.00102563
-0.000259962
-0.00291149
-0.000341719
-0.00625795
-0.00202113
-6.88779e-05
-0.00547993
-0.00295979
0.000332495
-0.00246306
-0.00138626
0.000414455
-0.00049909
-0.000146319
0.000488974
0.000608515
0.000488974
0.000610767
0.00112057
0.000829612
0.000710278
0.00121702
0.000925929
0.000747972
0.00118304
0.000918874
0.000734744
0.00115753
0.000863268
0.000654788
0.00114939
0.00076308
0.000423379
0.00131041
0.000641348
0.000215349
0.0013063
0.000549077
0.000149984
0.00113141
0.00058123
0.000120897
0.00108519
0.000647958
0.000127715
0.00100765
0.000655602
0.000231873
0.000996606
0.00071932
0.000422572
0.00108214
0.00087776
0.00050886
0.000683299
0.000903964
0.000394077
-0.000516924
0.000299365
0.000343453
-0.00259065
-0.00107492
-0.00557682
-0.00253357
-0.00118352
-0.00402885
-0.00379505
-0.00148139
-0.00201652
-0.00261535
-0.00131693
-0.000773791
-0.00158607
-0.00102552
2.57016e-05
-0.00102552
-0.000676515
0.000330752
-0.00086777
-0.000320796
0.000442828
-0.000866545
-2.89688e-05
0.000515506
-0.000944407
0.000209628
0.00061991
-0.00104577
0.000354976
0.000790878
-0.00108814
0.000371925
0.00118389
-0.000983573
0.000388086
0.00116123
-0.000904859
0.000524272
0.000776823
-0.000962619
0.000740532
0.000606705
-0.000999643
0.000975332
0.000482318
-0.00102395
0.0012471
0.000386733
-0.000972533
0.00159018
0.00031976
-0.000818715
0.0018295
7.16515e-05
-0.000783999
0.00184774
-0.000703656
-0.00128856
0.00133607
-0.00194502
-0.00227593
-0.00395944
-0.00333166
-0.00383155
-0.00516088
-0.00567079
-0.00536634
-0.00634236
-0.0058296
-0.00632952
-0.00632952
-0.00598459
-0.00696732
-0.00542005
-0.00773655
-0.00460966
-0.00855288
-0.0034747
-0.00931829
-0.00193882
-0.0098443
0.000172697
-0.00973753
0.00220011
-0.00934669
0.00365559
-0.0092928
0.00471954
-0.00875698
0.00546218
-0.00804772
0.00594547
-0.00730674
0.00624194
-0.0065684
0.00624506
-0.00592798
0.00558393
-0.00543593
0.00377288
-0.00496329
-0.00464727
0.00129835
0.00117033
0.00172036
0.00185473
0.00145663
0.00204996
0.00173813
0.00184613
0.00147749
0.00106082
0.00219182
0.000523564
0.000119082
0.00188348
0.000119082
0.000115196
5.7868e-05
0.000442745
0.000513381
-0.000424701
0.000539632
0.000504367
-0.000352047
0.000636397
0.000306056
-0.000267383
0.000728696
1.54491e-05
-0.000218506
0.000937653
-0.000280507
-0.000176131
0.00118054
-0.00035285
-0.000260812
0.00122516
-0.00024021
-0.000308094
0.00131622
-0.000739057
0.000650573
0.00176676
-0.00212583
0.00189664
0.00176711
-0.00319652
0.00173449
0.00213492
-0.00364918
0.00113518
0.00298826
-0.00330451
0.000310556
0.00391766
-0.00210065
-0.000443899
0.00447367
-0.0011383
0.00436122
0.000664784
0.00148863
0.00117118
0.00112722
0.00173169
0.00169668
0.00138963
0.00213711
0.00166148
0.00138915
0.00242897
0.00146617
0.00137112
0.00191955
0.00137112
0.00100728
0.000637865
0.00105084
0.000760753
-0.000258252
0.000745064
0.000530849
-0.000418935
0.000581498
-3.00733e-06
-0.000205388
0.000452777
-0.000691885
-2.94086e-05
0.000544595
-0.00110888
-0.000173587
0.000698015
-0.00123676
-0.000421618
0.000893027
-0.00139696
-0.000296439
0.00121514
-0.0015338
0.000723084
0.00171711
-0.00173613
0.00212656
0.00182078
-0.00213712
0.00225921
0.00175599
-0.00229289
0.00149444
0.00202448
-0.00198645
0.000334781
0.00240186
-0.00119449
-0.000837689
0.00246742
-0.00196934
0.00192213
0.000624562
0.000648099
0.00127704
0.00105791
0.00131638
0.00179161
0.00147087
0.00180567
0.00202483
0.00169955
0.00218695
0.00193448
0.00171414
0.00189037
0.00171414
0.00144309
0.000966798
0.00140145
0.00101391
0.000186306
0.00101991
0.000586293
-0.000125403
0.000682546
6.34677e-05
-1.21662e-05
0.000380902
-0.000562316
0.000178962
0.000304364
-0.00102992
-3.83334e-05
0.000467449
-0.00134342
-0.000311528
0.000745978
-0.00162507
-0.000141091
0.0011261
-0.00176166
0.000733192
0.00155273
-0.00175793
0.00198513
0.00178765
-0.00190348
0.00228014
0.00175816
-0.00192049
0.00144172
0.00185843
-0.00156843
-1.71732e-05
0.00189645
-0.00101949
-0.00128607
0.00136298
-0.0029497
0.000262636
0.00114661
-0.00128243
0.000798048
0.00138612
0.000632888
0.00156647
0.00168542
0.00131906
0.00207254
0.00196198
0.00179795
0.00218389
0.00202114
0.00177203
0.00202114
0.00178842
0.00121691
0.00173
0.00134098
0.000672985
0.00136681
0.000832687
0.000366036
0.000963817
0.000353426
0.000309095
0.000503328
-0.000158397
0.000392446
0.000209233
-0.000718879
0.000264984
0.000339391
-0.00121333
7.61387e-05
0.00072304
-0.00160892