/*--------------------------------*- C++ -*----------------------------------*\
  =========                 |
  \\      /  F ield         | OpenFOAM: The Open Source CFD Toolbox
   \\    /   O peration     | Website:  https://openfoam.org
    \\  /    A nd           | Version:  8
     \\/     M anipulation  |
\*---------------------------------------------------------------------------*/
FoamFile
{
    version     2.0;
    format      ascii;
    class       volVectorField;
    location    "2000";
    object      U;
}
// * * * * * * * * * * * * * * * * * * * * * * * * * * * * * * * * * * * * * //

dimensions      [0 1 -1 0 0 0 0];

internalField   nonuniform List<vector> 
4000
(
(0.00785673 -0.0241805 0.00785673)
(0.0162894 -0.0175214 0.00735201)
(0.0209921 -0.0112508 0.00621032)
(0.0209341 -0.00546992 0.00512708)
(0.0145734 -3.77276e-05 0.00416837)
(0.000687145 0.00262667 0.00267957)
(-0.00446458 -0.00107049 8.7345e-05)
(-0.00100211 -0.00142838 -0.000461863)
(-0.000222549 -0.00112869 -0.000749688)
(0.00148862 -0.00123182 -0.00048567)
(0.00220613 -0.00116242 -0.000260681)
(0.00345813 -0.00108237 -3.87449e-05)
(0.00168007 -0.0012115 4.38056e-05)
(0.00587123 -0.000529776 0.00199284)
(-0.00876922 0.00339195 0.00375656)
(-0.019477 -0.00126458 0.00387783)
(-0.0250909 -0.00560021 0.00437277)
(-0.024757 -0.0104172 0.00503194)
(-0.0193837 -0.0161733 0.00568281)
(-0.00938862 -0.0236879 0.00617354)
(0.00340309 -0.0332803 0.00340309)
(0.00811804 -0.0235174 0.00357451)
(0.010214 -0.0129668 0.00300013)
(0.0106084 -0.000860365 0.00224922)
(0.00819079 0.00736561 0.00205397)
(0.00228261 0.00627196 0.00177262)
(0.00181245 0.00054905 0.000711275)
(-0.00164281 -0.000752518 -0.000976996)
(0.000322099 -0.000291573 -0.00193876)
(0.00113521 -0.000153621 -0.00150844)
(0.00178881 -8.70255e-05 -0.00109759)
(0.00188691 -0.000107474 -0.000627499)
(0.000334104 -0.000608197 0.00011745)
(-0.00172587 0.00154215 0.000996718)
(-0.00342419 0.00785277 0.00268454)
(-0.00798386 0.00561903 0.00238249)
(-0.0115503 -0.0012735 0.0027362)
(-0.0115873 -0.0114566 0.00315266)
(-0.00950843 -0.0213114 0.00329475)
(-0.00350134 -0.0332365 0.00344245)
(0.00147896 -0.0418355 0.00147896)
(0.00337044 -0.0310522 0.0022422)
(0.00282894 -0.0186422 0.00223347)
(0.00331919 -0.00497114 0.00209679)
(0.00594741 0.0057843 0.00181607)
(0.00480415 0.00471293 0.00170248)
(0.00486012 0.00153062 0.00139049)
(0.00186459 0.000616232 0.000761983)
(0.000426849 0.000116898 -0.000741015)
(0.00132283 5.03381e-05 -0.00130296)
(0.0020996 0.000301574 -0.000830155)
(0.00221339 0.000681249 4.449e-05)
(3.40346e-05 0.000690334 0.00131623)
(-0.00310266 0.000537873 0.00166469)
(-0.00205862 0.00437633 0.00245996)
(-0.00261693 0.00423603 0.00274422)
(-0.000539338 -0.00482974 0.00326261)
(-0.00180263 -0.0167979 0.00288755)
(-0.00285615 -0.0287555 0.00246438)
(-0.000667794 -0.0420922 0.00222521)
(0.000543074 -0.0447976 0.000543074)
(0.000687798 -0.0338504 0.00172751)
(-0.00165939 -0.0214617 0.00212088)
(-0.00179179 -0.0105322 0.00280917)
(0.00201817 -0.000111392 0.00356229)
(0.00406796 0.000774406 0.00345093)
(0.00442975 0.000853034 0.00333284)
(0.00299904 0.00162255 0.00284644)
(0.00137435 0.00178103 0.00177451)
(0.00114334 0.0014092 0.00119117)
(0.00185514 0.00139302 0.00171506)
(0.00237994 0.0013039 0.00248808)
(0.00217667 0.000761259 0.00319773)
(0.00130673 -0.000324498 0.00353626)
(0.00137177 -0.00144455 0.00364178)
(0.00364753 -0.00438197 0.00399478)
(0.00450076 -0.0103098 0.00354377)
(0.00387736 -0.0196479 0.00265318)
(0.00108349 -0.0315801 0.00208016)
(0.000801175 -0.0450731 0.0016026)
(-8.1761e-05 -0.0450644 -8.1761e-05)
(-0.000966778 -0.0348289 0.00133588)
(-0.0043841 -0.0244147 0.00165737)
(-0.0049499 -0.0159385 0.00234676)
(-0.00426006 -0.00990487 0.00309855)
(-0.00261116 -0.00685294 0.00335819)
(-0.00183366 -0.00480521 0.00342171)
(-0.00125334 -0.00310717 0.00343688)
(-0.000610329 -0.00205539 0.00339748)
(0.000363653 -0.00217145 0.00335476)
(0.00160811 -0.00362739 0.00321312)
(0.00303047 -0.00475608 0.00313227)
(0.00420704 -0.00574787 0.00305252)
(0.00516124 -0.00671636 0.00297538)
(0.00620019 -0.00815465 0.00284788)
(0.00725797 -0.0108008 0.00261454)
(0.00739521 -0.0157861 0.00225357)
(0.00661984 -0.023197 0.00177849)
(0.00316465 -0.0332853 0.0015742)
(0.00168837 -0.0453816 0.00110578)
(-0.000674874 -0.0436747 -0.000674874)
(-0.00205629 -0.0349491 0.000783167)
(-0.00619648 -0.0266211 0.000681836)
(-0.00720329 -0.0203678 0.000772523)
(-0.00729058 -0.0159307 0.000855035)
(-0.00636043 -0.0134344 0.000875375)
(-0.00510378 -0.0116871 0.000874923)
(-0.00348389 -0.0102121 0.000922375)
(-0.00159023 -0.0090848 0.00103839)
(0.000631315 -0.00894908 0.00120313)
(0.00247187 -0.010209 0.000951574)
(0.00422219 -0.0112072 0.000631058)
(0.00591489 -0.012088 0.00041012)
(0.00739997 -0.0130988 0.000319608)
(0.008651 -0.0144712 0.000322)
(0.00946767 -0.0166382 0.000372735)
(0.00930248 -0.0202314 0.000449344)
(0.00826274 -0.0257725 0.000502516)
(0.00425179 -0.0338666 0.000802981)
(0.00230258 -0.0440871 0.000508149)
(-0.00144071 -0.0406924 -0.00144071)
(-0.00313974 -0.0336873 -0.000120453)
(-0.00786258 -0.0275628 -0.000716071)
(-0.00923804 -0.0233837 -0.00119411)
(-0.00949342 -0.0206103 -0.00166072)
(-0.00852411 -0.0189348 -0.00204666)
(-0.00682552 -0.0177154 -0.00238009)
(-0.00460902 -0.0166221 -0.00259518)
(-0.0020368 -0.0156578 -0.00262534)
(0.000629315 -0.0153034 -0.00235434)
(0.00275798 -0.0161813 -0.00240447)
(0.00471391 -0.0169764 -0.00268173)
(0.00683964 -0.0176407 -0.00279936)
(0.00875447 -0.0183383 -0.00270299)
(0.0103157 -0.0192358 -0.00243395)
(0.0112451 -0.0206394 -0.00204884)
(0.0110441 -0.0230306 -0.00154213)
(0.00972978 -0.0268847 -0.0010018)
(0.0052148 -0.0329423 -0.000278878)
(0.00300819 -0.0409784 -0.000358164)
(-0.002727 -0.0350573 -0.002727)
(-0.00485903 -0.0299109 -0.00173771)
(-0.010011 -0.0260141 -0.00265148)
(-0.0116716 -0.0236727 -0.0035286)
(-0.0118876 -0.0222181 -0.00432152)
(-0.0106877 -0.021387 -0.00496826)
(-0.00851103 -0.0207964 -0.00551052)
(-0.00566076 -0.0202284 -0.0059352)
(-0.00239943 -0.0196319 -0.00615984)
(0.000525044 -0.0192804 -0.00590698)
(0.00287744 -0.0196948 -0.00574319)
(0.00504694 -0.0200831 -0.00588704)
(0.00772964 -0.0203417 -0.00580975)
(0.0101846 -0.0206091 -0.00552035)
(0.0121547 -0.0209909 -0.00508447)
(0.0133203 -0.0217011 -0.0045132)
(0.013205 -0.0230579 -0.00378407)
(0.0116656 -0.0253648 -0.0029143)
(0.00675977 -0.0293432 -0.00190495)
(0.00418509 -0.0351409 -0.00173124)
(-0.00498246 -0.0259209 -0.00498246)
(-0.00804762 -0.0223489 -0.00474096)
(-0.0133115 -0.0203168 -0.00584566)
(-0.0150723 -0.0195512 -0.00699291)
(-0.0151325 -0.0193352 -0.00801176)
(-0.0136418 -0.0194226 -0.008841)
(-0.010997 -0.0195394 -0.00951263)
(-0.00748554 -0.01953 -0.0100021)
(-0.00336626 -0.0192889 -0.0101817)
(0.000169297 -0.0188897 -0.00954819)
(0.00332845 -0.0190116 -0.00922254)
(0.00594692 -0.0192485 -0.00961351)
(0.00935234 -0.0192422 -0.0095749)
(0.0124099 -0.0190834 -0.00923394)
(0.0148259 -0.0188848 -0.0086952)
(0.0162877 -0.018779 -0.00797664)
(0.016345 -0.0189855 -0.00705657)
(0.0147311 -0.0197719 -0.0059506)
(0.00964734 -0.0218641 -0.00471365)
(0.00626398 -0.025868 -0.00404541)
(-0.00866717 -0.015856 -0.00866717)
(-0.0138811 -0.0125287 -0.010012)
(-0.0190808 -0.0109393 -0.0120597)
(-0.0206874 -0.0102983 -0.0139419)
(-0.0204407 -0.00994533 -0.01569)
(-0.0185734 -0.00967306 -0.0172485)
(-0.0153879 -0.00932441 -0.0185527)
(-0.0110843 -0.00881987 -0.0195606)
(-0.0058475 -0.00810837 -0.0200447)
(-0.00101144 -0.00732236 -0.019093)
(0.00444135 -0.00764283 -0.0183181)
(0.00806283 -0.00820052 -0.0189322)
(0.0125301 -0.00867911 -0.0185966)
(0.0163597 -0.00902021 -0.0177574)
(0.0193119 -0.00927055 -0.016647)
(0.0211566 -0.00950575 -0.0152829)
(0.0215371 -0.00984398 -0.0136837)
(0.0201143 -0.0104888 -0.0118717)
(0.0151156 -0.0121065 -0.00974947)
(0.00978213 -0.0156823 -0.0076853)
(0.00735201 -0.0175214 0.0162894)
(0.0148676 -0.0129949 0.0148676)
(0.0195733 -0.00810728 0.0121609)
(0.0197445 -0.00328575 0.00930685)
(0.0141891 0.00144493 0.00661849)
(0.00345763 0.00445716 0.00445068)
(-0.00326254 -0.0018372 0.00121957)
(-9.93153e-06 -0.00157197 -0.000364303)
(3.20112e-05 -0.000919815 -0.000757943)
(0.00119437 -0.000991925 -0.000409605)
(0.00143638 -0.00100645 0.000153795)
(0.00200599 -0.00108114 0.000860245)
(0.000669178 -0.0014536 0.00133104)
(0.00146112 0.00140767 0.00515648)
(-0.0108864 0.00354003 0.00653395)
(-0.0200318 -0.000682836 0.00726911)
(-0.0249745 -0.00466437 0.00874235)
(-0.0243815 -0.00905839 0.0106221)
(-0.0188757 -0.0142549 0.0124495)
(-0.00954404 -0.0205326 0.0135101)
(0.00357451 -0.0235174 0.00811804)
(0.00842999 -0.0175843 0.00842999)
(0.011155 -0.00920711 0.00700815)
(0.0115712 0.00152395 0.00470725)
(0.00939456 0.00828761 0.00362332)
(0.00510843 0.00815387 0.00323364)
(0.00441464 0.00239425 0.00199942)
(0.00128354 -0.000733045 -0.000142596)
(0.000885109 -0.000681146 -0.00212794)
(0.000586139 -0.000416829 -0.00200281)
(3.44287e-05 -0.000325621 -0.00124392)
(-0.00106125 -0.000511721 0.000103912)
(-0.00319074 -0.000295908 0.00188712)
(-0.00371246 0.00351233 0.00311987)
(-0.00636336 0.00869645 0.00449061)
(-0.0103489 0.00607266 0.0043052)
(-0.0137333 -0.000559194 0.00522885)
(-0.0135946 -0.00979549 0.00679206)
(-0.010793 -0.0190532 0.00772454)
(-0.00457101 -0.0287536 0.00756855)
(0.0022422 -0.0310522 0.00337044)
(0.00548634 -0.0249626 0.00548634)
(0.0062034 -0.0150646 0.00552275)
(0.00709339 -0.00290995 0.00424398)
(0.00798693 0.00652879 0.00335789)
(0.00677007 0.00673346 0.00315682)
(0.00630596 0.00253481 0.00248492)
(0.00402846 0.000511284 0.0013335)
(0.00209288 0.000134523 -0.00072377)
(0.00131518 0.000438769 -0.00193605)
(0.000866197 0.000514777 -0.00129783)
(-0.00051015 0.000263487 0.000832957)
(-0.00305615 -0.000274992 0.00229739)
(-0.0047033 0.00182444 0.00286844)
(-0.00440691 0.00669628 0.00389749)
(-0.00508576 0.00525964 0.00420774)
(-0.00524115 -0.00270584 0.00506997)
(-0.00595989 -0.014123 0.00614719)
(-0.00591221 -0.0259934 0.0060033)
(-0.00233565 -0.0368919 0.00439525)
(0.00172751 -0.0338504 0.000687798)
(0.00434877 -0.0276614 0.00434877)
(0.00347694 -0.0171117 0.00566983)
(0.00355151 -0.00463201 0.00564626)
(0.00588381 0.00439311 0.005123)
(0.00672653 0.00511962 0.00476709)
(0.0065417 0.00348321 0.0043045)
(0.00469417 0.00279551 0.00340949)
(0.00263677 0.00246671 0.00170381)
(0.00177265 0.00229162 0.000111438)
(0.00182132 0.00245339 0.000576839)
(0.00151889 0.0027638 0.00232861)
(-0.000161123 0.00266184 0.0039584)
(-0.0022743 0.00262865 0.00441651)
(-0.00228089 0.00411789 0.00495136)
(-0.000966475 0.00357422 0.0059585)
(6.89857e-05 -0.00244908 0.0069333)
(-0.001272 -0.0144279 0.0066167)
(-0.00330672 -0.0279739 0.00557098)
(-0.00124449 -0.039477 0.00264964)
(0.00133588 -0.0348289 -0.000966778)
(0.00389024 -0.0284065 0.00389024)
(0.00168746 -0.0180334 0.00592756)
(0.00101078 -0.00678682 0.00679627)
(0.00196556 0.00100509 0.00728326)
(0.00315328 0.00290108 0.00694909)
(0.00287609 0.00324901 0.00644947)
(0.00185538 0.0037537 0.0055993)
(0.000946638 0.00398585 0.00440903)
(0.00101211 0.00382809 0.00352084)
(0.00176541 0.00348032 0.00389747)
(0.00231434 0.00323192 0.00489896)
(0.00207933 0.00304704 0.00581789)
(0.00137951 0.00278188 0.00637079)
(0.00129318 0.00234816 0.00675015)
(0.00219515 0.000932332 0.00736976)
(0.00236662 -0.00448988 0.0075293)
(0.0013427 -0.0143846 0.00688693)
(-0.00196881 -0.0281222 0.00538733)
(-0.000570632 -0.0395677 0.00144584)
(0.000783167 -0.0349491 -0.00205629)
(0.0035122 -0.0277841 0.0035122)
(0.000211371 -0.0178503 0.0057914)
(-0.000569593 -0.00790282 0.00682255)
(-0.00111816 -0.00153717 0.00744583)
(-0.00028494 0.00136269 0.00752416)
(-0.000312191 0.00267347 0.00716544)
(-0.000374038 0.00364907 0.00666243)
(-0.000175326 0.00416698 0.00606428)
(0.000814788 0.00413589 0.00567193)
(0.00209211 0.00369247 0.00579635)
(0.00312785 0.00330173 0.00612884)
(0.00362694 0.00291952 0.00645184)
(0.00375693 0.00228297 0.0067432)
(0.00394809 0.00108471 0.00700952)
(0.00431314 -0.00127403 0.00711858)
(0.00358122 -0.00612382 0.00704184)
(0.00268171 -0.0147835 0.00645234)
(-0.00115646 -0.0270255 0.00494517)
(5.15909e-05 -0.0382063 0.000372095)
(-0.000120453 -0.0336873 -0.00313974)
(0.00264097 -0.025986 0.00264097)
(-0.00159937 -0.0168278 0.00487009)
(-0.00222712 -0.00913161 0.00567233)
(-0.00281396 -0.00392737 0.00592703)
(-0.00254421 -0.001186 0.00606382)
(-0.00191783 0.000601953 0.00630021)
(-0.00120904 0.0017706 0.00641478)
(-0.000369037 0.00234717 0.00625319)
(0.000865607 0.00218742 0.00608997)
(0.00203658 0.00168959 0.00603599)
(0.00311305 0.00137748 0.00601399)
(0.00395803 0.00105219 0.00594483)
(0.0046788 0.000360866 0.00571245)
(0.00534206 -0.00101355 0.00544862)
(0.00561575 -0.00329575 0.00538071)
(0.00496649 -0.00767468 0.00549173)
(0.00401909 -0.0148752 0.00513318)
(-0.000215776 -0.0251317 0.00379861)
(0.000960044 -0.0355323 -0.000883528)
(-0.00173771 -0.0299109 -0.00485903)
(0.000380947 -0.0222936 0.000380947)
(-0.00430511 -0.0153736 0.00217018)
(-0.0051616 -0.00992077 0.00243962)
(-0.00564662 -0.00612468 0.00195116)
(-0.00520008 -0.00382273 0.00155577)
(-0.00419772 -0.00220689 0.00138649)
(-0.00269156 -0.000736011 0.00165353)
(-0.000953553 0.000646373 0.00233186)
(0.000703657 0.00184256 0.00331432)
(0.00203693 0.00127037 0.00297468)
(0.00347349 -1.33179e-05 0.00190044)
(0.00506502 -0.00113593 0.00109508)
(0.00645792 -0.00225428 0.000759035)
(0.00750549 -0.00361064 0.000794389)
(0.00800391 -0.00556091 0.00120135)
(0.00753567 -0.00887509 0.00184248)
(0.006379 -0.0141423 0.00216708)
(0.0018241 -0.0218385 0.00114616)
(0.00254707 -0.0306593 -0.00282793)
(-0.00474096 -0.0223489 -0.00804762)
(-0.00494508 -0.016796 -0.00494508)
(-0.00944206 -0.0128155 -0.00422026)
(-0.0104355 -0.0106203 -0.00457342)
(-0.0102625 -0.00937934 -0.00527923)
(-0.00900246 -0.00889069 -0.0058678)
(-0.00712161 -0.00867496 -0.00626733)
(-0.00474656 -0.00852157 -0.00634112)
(-0.00206409 -0.0083354 -0.00594598)
(0.000183103 -0.00778619 -0.00455941)
(0.00249671 -0.00782411 -0.00450641)
(0.00441501 -0.00826682 -0.00559327)
(0.00672574 -0.00826301 -0.00609044)
(0.00884013 -0.00824927 -0.00617387)
(0.0105949 -0.00837913 -0.00593641)
(0.0117973 -0.00878877 -0.00540671)
(0.0119989 -0.00992032 -0.00465819)
(0.0109804 -0.0121633 -0.00409628)
(0.00644954 -0.0163409 -0.00431177)
(0.00539839 -0.0225801 -0.00633203)
(-0.010012 -0.0125287 -0.0138811)
(-0.0148512 -0.00753389 -0.0148512)
(-0.0200845 -0.0048661 -0.0171739)
(-0.0215337 -0.00344338 -0.0196)
(-0.0212787 -0.0025118 -0.0219692)
(-0.0195735 -0.00176899 -0.0241619)
(-0.0166825 -0.000969351 -0.0259796)
(-0.0127264 -4.25794e-05 -0.0273394)
(-0.00772612 0.00105658 -0.0279098)
(-0.00281892 0.00236428 -0.0267031)
(0.00489847 0.00206993 -0.0257426)
(0.00917011 0.0009239 -0.0265266)
(0.0137455 6.58421e-06 -0.0259752)
(0.0174042 -0.000761678 -0.0247282)
(0.0201385 -0.00145555 -0.023126)
(0.0218065 -0.00215621 -0.0211678)
(0.0221281 -0.00304537 -0.0189414)
(0.02076 -0.00444839 -0.0165342)
(0.0155953 -0.00717042 -0.0140293)
(0.0104696 -0.0124177 -0.0122418)
(0.00621032 -0.0112508 0.0209921)
(0.0121609 -0.00810728 0.0195733)
(0.0161984 -0.00442917 0.0161984)
(0.0158843 -0.000644945 0.0120325)
(0.0108518 0.00346776 0.00795498)
(0.00176838 0.00503583 0.00468561)
(-0.00185755 -0.00223811 0.00215798)
(0.000447592 -0.00169067 -0.000587851)
(0.000457664 -0.00100756 -0.000562214)
(0.000904247 -0.000972695 -0.00017427)
(0.000732267 -0.000918525 0.000770805)
(0.000810505 -0.0009884 0.00189659)
(0.000232088 -0.00168033 0.00278713)
(-0.000236255 0.00245853 0.00725469)
(-0.0106732 0.00385466 0.00906941)
(-0.0185421 0.000133917 0.0106239)
(-0.0228201 -0.00343359 0.0130532)
(-0.0220136 -0.00718519 0.0156822)
(-0.0168027 -0.0114047 0.0180691)
(-0.00870651 -0.0161284 0.0189698)
(0.00300013 -0.0129668 0.010214)
(0.00700815 -0.00920711 0.011155)
(0.0096303 -0.00265438 0.0096303)
(0.010264 0.00508229 0.00709272)
(0.00854866 0.00954084 0.00548001)
(0.00510735 0.00790366 0.00465092)
(0.00477396 0.00203108 0.00271899)
(0.00198193 -0.000985056 7.84887e-05)
(0.00128667 -0.000905363 -0.00190751)
(-0.000177551 -0.000529965 -0.00189185)
(-0.00175774 -0.00057659 -0.000839558)
(-0.00300881 -0.00082827 0.00087746)
(-0.00463598 4.50657e-05 0.00305534)
(-0.00474564 0.00447478 0.00512271)
(-0.00745524 0.00903706 0.0064644)
(-0.010916 0.0067157 0.00643745)
(-0.0137144 0.000895495 0.00748648)
(-0.0133566 -0.00724828 0.00939049)
(-0.0102271 -0.0146759 0.0102614)
(-0.00439869 -0.0214186 0.00904234)
(0.00223347 -0.0186422 0.00282894)
(0.00552275 -0.0150646 0.0062034)
(0.00700211 -0.00813557 0.00700211)
(0.00848 0.0015244 0.00612023)
(0.00870828 0.00830126 0.00524161)
(0.00747392 0.00720493 0.00484174)
(0.00662845 0.00259736 0.00365923)
(0.00426966 0.000256704 0.00174668)
(0.00225578 -7.29043e-05 -0.000842325)
(0.000841226 0.00049411 -0.00211578)
(-0.000875616 0.000278527 -0.00107323)
(-0.00284774 -0.000645965 0.00112535)
(-0.00494997 -0.000412341 0.00297218)
(-0.00592782 0.00315422 0.00424783)
(-0.00612145 0.00801067 0.00533498)
(-0.00720496 0.00603053 0.00542969)
(-0.00801872 -0.0016341 0.00616142)
(-0.00793971 -0.011351 0.00726593)
(-0.00683943 -0.0206061 0.0064297)
(-0.00259249 -0.0278011 0.0029008)
(0.00212088 -0.0214617 -0.00165939)
(0.00566983 -0.0171117 0.00347694)
(0.00609372 -0.0101717 0.00609372)
(0.00695945 -0.000629381 0.00655163)
(0.0082347 0.006331 0.00618383)
(0.00827541 0.00639963 0.00588584)
(0.00746297 0.00397333 0.0050824)
(0.00531708 0.00248492 0.00362668)
(0.00306939 0.00181107 0.00118337)
(0.00182616 0.00170833 -0.00102645)
(0.00116799 0.00179886 -0.000710809)
(-0.000236402 0.001854 0.00206444)
(-0.00282516 0.00201921 0.00405014)
(-0.00471284 0.00329713 0.0047981)
(-0.00466368 0.00646836 0.00557837)
(-0.00423718 0.00618987 0.00634565)
(-0.00403804 -3.54256e-05 0.00734552)
(-0.00469213 -0.0113344 0.00705543)
(-0.00530297 -0.0219983 0.00465403)
(-0.00168973 -0.0297841 -0.000739373)
(0.00165737 -0.0244147 -0.0043841)
(0.00592756 -0.0180334 0.00168746)
(0.00537074 -0.0111178 0.00537074)
(0.00538368 -0.00237577 0.0070332)
(0.00622556 0.00437477 0.00754037)
(0.00658712 0.00567847 0.00727558)
(0.00573335 0.00489173 0.0065312)
(0.0039713 0.00429256 0.00516637)
(0.0022602 0.00376747 0.00304897)
(0.00157949 0.00332266 0.00104229)
(0.00166165 0.00334126 0.00113299)
(0.00127731 0.00358893 0.00308035)
(-0.00031427 0.00390761 0.00495137)
(-0.00190995 0.00425515 0.00582287)
(-0.00227029 0.00549102 0.00647724)
(-0.00169861 0.00543108 0.0074948)
(-0.00160315 -0.000141551 0.00827349)
(-0.00247255 -0.0107297 0.00698102)
(-0.00449804 -0.0218662 0.00352399)
(-0.000914756 -0.0306805 -0.00293125)
(0.000681836 -0.0266211 -0.00619648)
(0.0057914 -0.0178503 0.000211371)
(0.00433896 -0.0107298 0.00433896)
(0.00396136 -0.0025816 0.0064947)
(0.00375625 0.00357829 0.00742737)
(0.00391383 0.00562858 0.00727192)
(0.00323347 0.00581709 0.00653808)
(0.00218195 0.00574405 0.00540892)
(0.00130183 0.00539481 0.00386117)
(0.00122062 0.00497362 0.00249692)
(0.00172514 0.00495884 0.00242575)
(0.00199127 0.00520875 0.0034463)
(0.00147289 0.00548188 0.00458693)
(0.000655098 0.00540589 0.00536748)
(0.000270741 0.00542813 0.00610534)
(0.000535966 0.00495163 0.00710758)
(4.37131e-05 0.000485975 0.00783114)
(-0.000858428 -0.0097244 0.00625003)
(-0.00383399 -0.0207343 0.002239)
(1.11289e-05 -0.0309154 -0.00446084)
(-0.000716071 -0.0275628 -0.00786258)
(0.00487009 -0.0168278 -0.00159937)
(0.0026242 -0.00958837 0.0026242)
(0.00243774 -0.00259241 0.00488828)
(0.00172235 0.00242564 0.00567828)
(0.00163378 0.00453554 0.00543594)
(0.00135282 0.00504692 0.00489409)
(0.00103541 0.00512347 0.00419844)
(0.00086694 0.00482941 0.00319591)
(0.00112109 0.00453419 0.00224585)
(0.00168076 0.00450542 0.00205047)
(0.00219881 0.00461262 0.00255093)
(0.00230168 0.00479263 0.00319964)
(0.00217451 0.00462351 0.00367291)
(0.00211091 0.00425615 0.00418771)
(0.00228457 0.00346396 0.00511712)
(0.00144964 -0.00044102 0.00595364)
(0.000794817 -0.00825069 0.0044123)
(-0.00270439 -0.0188315 0.000239977)
(0.00125853 -0.0299785 -0.00602256)
(-0.00265148 -0.0260141 -0.010011)
(0.00217018 -0.0153736 -0.00430511)
(-0.000764376 -0.00747323 -0.000764376)
(-0.000392054 -0.000508561 0.000995398)
(-0.000519231 0.00400236 0.00172931)
(-4.46598e-05 0.00590111 0.00141732)
(0.000221846 0.00669358 0.0010185)
(0.000535172 0.00716204 0.00078296)
(0.000939057 0.00731539 0.000560783)
(0.00130038 0.00731587 0.000555381)
(0.00158612 0.0072922 0.000355717)
(0.00204579 0.00727018 8.84362e-05)
(0.0025222 0.00712475 8.97756e-05)
(0.00287589 0.00661483 0.000134876)
(0.0032465 0.00585831 0.000432829)
(0.00363186 0.00462516 0.00120978)
(0.00357357 0.000973358 0.00150212)
(0.00356262 -0.00629358 0.000423391)
(3.487e-07 -0.0158265 -0.0029708)
(0.00307624 -0.0268586 -0.00809171)
(-0.00584566 -0.0203168 -0.0133115)
(-0.00422026 -0.0128155 -0.00944206)
(-0.00713279 -0.00757059 -0.00713279)
(-0.00665552 -0.00456155 -0.00626097)
(-0.00560589 -0.00261248 -0.00591096)
(-0.00373806 -0.0019069 -0.0054984)
(-0.0022484 -0.00181058 -0.00560435)
(-0.000895726 -0.00176659 -0.00572903)
(0.00035066 -0.00155926 -0.00558784)
(0.00106816 -0.000270831 -0.00494167)
(0.00172281 -0.000269803 -0.00475526)
(0.00239419 -0.00145006 -0.00524187)
(0.00349673 -0.00159769 -0.00553157)
(0.00472338 -0.00167366 -0.00566963)
(0.0060158 -0.00188332 -0.00563937)
(0.00754918 -0.00232956 -0.00569466)
(0.00856859 -0.00399488 -0.00583418)
(0.00880328 -0.007118 -0.00640652)
(0.00557241 -0.0125435 -0.00829544)
(0.00616415 -0.0204347 -0.0114484)
(-0.0120597 -0.0109393 -0.0190808)
(-0.0171739 -0.0048661 -0.0200845)
(-0.022395 -0.00177431 -0.022395)
(-0.0235093 -9.67964e-05 -0.0249466)
(-0.0229621 0.00106209 -0.027484)
(-0.0211453 0.0020275 -0.0300166)
(-0.0182416 0.00307621 -0.0322629)
(-0.0142801 0.00426424 -0.0340116)
(-0.00911259 0.00563215 -0.0347683)
(-0.00379324 0.00724087 -0.0332895)
(0.00539472 0.00699059 -0.032123)
(0.0102244 0.00547855 -0.0330059)
(0.0150661 0.00424706 -0.0321644)
(0.0187591 0.00319552 -0.0305045)
(0.0214675 0.00224783 -0.0285148)
(0.0231408 0.00131401 -0.0261934)
(0.0236631 0.000188216 -0.023759)
(0.022581 -0.00147548 -0.0212347)
(0.0174257 -0.00460923 -0.0187928)
(0.012121 -0.0107501 -0.0171557)
(0.00512708 -0.00546992 0.0209341)
(0.00930685 -0.00328575 0.0197445)
(0.0120325 -0.000644945 0.0158843)
(0.010897 0.0025114 0.010897)
(0.00621092 0.00571949 0.00633815)
(-0.00168424 0.00238213 0.00259946)
(0.000448817 -0.00240523 0.00224903)
(0.000946241 -0.00151524 0.000452272)
(0.00106906 -0.00106819 0.000255669)
(0.000632775 -0.000955624 0.000905026)
(-5.1885e-05 -0.000659815 0.00208073)
(-0.000402236 -0.000918502 0.00301616)
(-0.000463284 -0.0017497 0.00406671)
(-0.000369549 0.00266234 0.00796862)
(-0.00883177 0.0045066 0.00980514)
(-0.0154297 0.00144938 0.0118997)
(-0.019139 -0.00167806 0.0151322)
(-0.0185183 -0.00468821 0.0183893)
(-0.0139742 -0.00794735 0.0209476)
(-0.00747302 -0.0114829 0.0214779)
(0.00224922 -0.000860365 0.0106084)
(0.00470725 0.00152395 0.0115712)
(0.00709272 0.00508229 0.010264)
(0.00772258 0.00879917 0.00772258)
(0.00659426 0.0102768 0.00593829)
(0.00449849 0.00542493 0.00500666)
(0.00398576 8.94257e-05 0.00267265)
(0.00212204 -0.00143759 0.000665162)
(0.00137886 -0.00102834 -0.000996455)
(-0.0011584 -0.000604027 -0.00080196)
(-0.00313618 -0.000768523 0.000405198)
(-0.00412899 -0.00104345 0.00192622)
(-0.0053092 -9.22556e-05 0.00398781)
(-0.00514407 0.00441542 0.00636089)
(-0.00723434 0.00921888 0.00745595)
(-0.00994181 0.0079228 0.00761365)
(-0.0119673 0.00363851 0.00885833)
(-0.0115111 -0.00281005 0.0108198)
(-0.00861623 -0.0086427 0.0115144)
(-0.00377414 -0.01357 0.00953818)
(0.00209679 -0.00497114 0.00331919)
(0.00424398 -0.00290995 0.00709339)
(0.00612023 0.0015244 0.00848)
(0.00762653 0.00715702 0.00762653)
(0.00788595 0.00974312 0.00655134)
(0.00721417 0.00591367 0.00577911)
(0.00609484 0.00142435 0.00420709)
(0.00371374 -0.000610626 0.00203365)
(0.00193327 -0.000464386 -0.00035905)
(-0.000225094 0.000306888 -0.00122325)
(-0.00243873 -0.000366094 -8.03562e-05)
(-0.00420618 -0.00132875 0.00182068)
(-0.00596109 -0.00061412 0.00370149)
(-0.00665034 0.00363876 0.00534135)
(-0.00691414 0.00876148 0.00631665)
(-0.00795074 0.00756547 0.00630399)
(-0.00869292 0.00136604 0.00695078)
(-0.00798556 -0.00655519 0.0076392)
(-0.00640545 -0.0132502 0.00633844)
(-0.00243448 -0.018601 0.00200695)
(0.00280917 -0.0105322 -0.00179179)
(0.00564626 -0.00463201 0.00355151)
(0.00655163 -0.000629381 0.00695945)
(0.00777265 0.00493426 0.00777265)
(0.00868157 0.00803956 0.00739265)
(0.00855866 0.00614357 0.00677544)
(0.00736598 0.00330078 0.0055666)
(0.0051267 0.00163585 0.00377569)
(0.00290242 0.00107912 0.00119824)
(0.00138857 0.00132514 -0.000813769)
(-0.000375418 0.00105618 -0.000127031)
(-0.0025599 0.000534851 0.002293)
(-0.00488405 0.00107274 0.00418664)
(-0.00631588 0.00347617 0.0052798)
(-0.00629854 0.0075658 0.00609506)
(-0.0063195 0.0076162 0.00645597)
(-0.00633717 0.00218895 0.00709595)
(-0.00604527 -0.00651065 0.00679687)
(-0.00570894 -0.0139835 0.00379606)
(-0.00178568 -0.0209539 -0.0021507)
(0.00234676 -0.0159385 -0.0049499)
(0.00679627 -0.00678682 0.00101078)
(0.0070332 -0.00237577 0.00538368)
(0.00752649 0.00281038 0.00752649)
(0.00822922 0.00640388 0.00802989)
(0.00817988 0.00615639 0.0076834)
(0.00700563 0.00462797 0.00670888)
(0.00503065 0.00349289 0.00509764)
(0.00308258 0.00271341 0.00267331)
(0.00188762 0.00231479 0.000336383)
(0.000995882 0.00227083 0.000364564)
(-0.000652598 0.00245648 0.0028399)
(-0.00282956 0.00281935 0.00477271)
(-0.00447349 0.00399241 0.00573898)
(-0.00479306 0.0066437 0.006476)
(-0.00448114 0.00729051 0.00722217)
(-0.00426955 0.00251571 0.00783969)
(-0.0042561 -0.00601793 0.00652771)
(-0.0052044 -0.0139319 0.00242739)
(-0.0009127 -0.0235552 -0.00432443)
(0.000772523 -0.0203678 -0.00720329)
(0.00682255 -0.00790282 -0.000569593)
(0.0064947 -0.0025816 0.00396136)
(0.00654323 0.00237633 0.00654323)
(0.00668522 0.00596794 0.00766516)
(0.00655117 0.0066548 0.00762103)
(0.00560558 0.00603229 0.00688624)
(0.00417409 0.00535008 0.00561519)
(0.0027644 0.00460408 0.00373191)
(0.00184694 0.00399443 0.00179323)
(0.00127089 0.00400527 0.00149437)
(0.000406961 0.00448101 0.00310656)
(-0.00104215 0.00482497 0.00472413)
(-0.00228322 0.00517834 0.00557615)
(-0.00272198 0.00654026 0.00633464)
(-0.00239968 0.00728542 0.00726927)
(-0.00230336 0.0035836 0.00780789)
(-0.00238287 -0.00479335 0.00595268)
(-0.00447419 -0.0131996 0.00114209)
(0.000294396 -0.025359 -0.00595049)
(-0.00119411 -0.0233837 -0.00923804)
(0.00567233 -0.00913161 -0.00222712)
(0.00488828 -0.00259241 0.00243774)
(0.00485887 0.00220374 0.00485887)
(0.00471272 0.00540043 0.00609985)
(0.00468802 0.00629214 0.00626452)
(0.00423367 0.00596435 0.00590684)
(0.00348341 0.00537708 0.00521438)
(0.00264239 0.004619 0.00408565)
(0.00188143 0.00409218 0.00278883)
(0.00128087 0.00408897 0.00236409)
(0.000754646 0.00441853 0.00322375)
(-2.04739e-05 0.00475106 0.00421032)
(-0.00074644 0.00484532 0.00466138)
(-0.000992628 0.00560476 0.00512271)
(-0.000480174 0.0064056 0.00600688)
(-0.000457028 0.00361725 0.00652933)
(-0.000393544 -0.00347775 0.00464598)
(-0.00313558 -0.0120949 -0.000813268)
(0.00184802 -0.025986 -0.00767329)
(-0.0035286 -0.0236727 -0.0116716)
(0.00243962 -0.00992077 -0.0051616)
(0.000995398 -0.000508561 -0.000392054)
(0.00206056 0.00457768 0.00206056)
(0.00215822 0.0066825 0.00318441)
(0.00270417 0.00730939 0.00336709)
(0.00296331 0.00735031 0.00328603)
(0.00299379 0.00737246 0.00311766)
(0.00284995 0.00728711 0.0028234)
(0.00223958 0.0072213 0.0024845)
(0.00121405 0.00717941 0.0021887)
(0.000638933 0.00716524 0.00223395)
(0.000523077 0.00700274 0.00246802)
(0.000427277 0.00651831 0.00244152)
(0.00059055 0.00640761 0.00261675)
(0.00137387 0.0067496 0.0033035)
(0.00173145 0.00496961 0.00366507)
(0.00247512 -0.000811348 0.00141175)
(-6.63565e-05 -0.0111992 -0.00386502)
(0.00387116 -0.024363 -0.00982296)
(-0.00699291 -0.0195512 -0.0150723)
(-0.00457342 -0.0106203 -0.0104355)
(-0.00626097 -0.00456155 -0.00665552)
(-0.00415524 -0.000969403 -0.00415524)
(-0.00344469 0.000722196 -0.00392883)
(-0.00195657 0.000708673 -0.00410492)
(-0.000679015 0.000232447 -0.00438254)
(0.000404342 -0.000161398 -0.00460463)
(0.00121671 -0.000248018 -0.00457657)
(0.00150632 0.00107531 -0.00393336)
(0.00152248 0.00109865 -0.00364589)
(0.00171511 -0.000232114 -0.00406645)
(0.00252898 -0.000264126 -0.0043095)
(0.00344184 -0.000163019 -0.0045143)
(0.00442253 4.63203e-05 -0.00440921)
(0.00567342 0.000468677 -0.00375063)
(0.00643541 -0.000720024 -0.00330925)
(0.00796887 -0.00430849 -0.00542759)
(0.00573227 -0.0103643 -0.009028)
(0.00710926 -0.0194543 -0.0131445)
(-0.0139419 -0.0102983 -0.0206874)
(-0.0196 -0.00344338 -0.0215337)
(-0.0249466 -9.67964e-05 -0.0235093)
(-0.0256839 0.00170198 -0.0256839)
(-0.0247733 0.00295756 -0.0280007)
(-0.0230184 0.00405607 -0.0307937)
(-0.0203602 0.00530053 -0.0336945)
(-0.0165035 0.00676919 -0.0362873)
(-0.0110672 0.00849995 -0.0378677)
(-0.00501841 0.0105681 -0.0370018)
(0.00633188 0.0103413 -0.035569)
(0.0119272 0.00832662 -0.0358128)
(0.0170651 0.00668232 -0.0341785)
(0.0206653 0.00530353 -0.03178)
(0.0230472 0.00410805 -0.0291608)
(0.0245118 0.00302139 -0.0264828)
(0.025252 0.00179739 -0.0241405)
(0.0245314 2.98437e-05 -0.0220003)
(0.0193297 -0.00328818 -0.0199581)
(0.0136642 -0.0100321 -0.018615)
(0.00416837 -3.77276e-05 0.0145734)
(0.00661849 0.00144493 0.0141891)
(0.00795498 0.00346776 0.0108518)
(0.00633815 0.00571949 0.00621092)
(0.00255697 0.00601259 0.00255697)
(-0.00153392 -0.00194945 0.0015138)
(0.00222119 -0.00242103 0.00191212)
(0.00209135 -0.0014735 0.00180393)
(0.00184455 -0.0011238 0.00196087)
(0.000780789 -0.000975685 0.00266094)
(-0.000695972 -0.00049315 0.00372981)
(-0.00147334 -0.000964188 0.00422655)
(-0.00147705 -0.00184008 0.00495114)
(-4.85999e-05 0.00198584 0.00756707)
(-0.00615166 0.00524844 0.00864041)
(-0.0114344 0.00328183 0.0106597)
(-0.0146521 0.000696555 0.0142543)
(-0.0146182 -0.0017522 0.0180624)
(-0.0110816 -0.0040305 0.0205937)