/*--------------------------------*- C++ -*----------------------------------*\
  =========                 |
  \\      /  F ield         | OpenFOAM: The Open Source CFD Toolbox
   \\    /   O peration     | Website:  https://openfoam.org
    \\  /    A nd           | Version:  8
     \\/     M anipulation  |
\*---------------------------------------------------------------------------*/
FoamFile
{
    version     2.0;
    format      ascii;
    class       volScalarField;
    location    "1800";
    object      alphat;
}
// * * * * * * * * * * * * * * * * * * * * * * * * * * * * * * * * * * * * * //

dimensions      [1 -1 -1 0 0 0 0];

internalField   nonuniform List<scalar> 
4000
(
0.000310332
0.000301627
0.000288515
0.000274719
0.000253911
0.000176694
9.7467e-05
9.71844e-05
9.63136e-05
9.45867e-05
9.32671e-05
9.18901e-05
9.32776e-05
0.000112963
0.00021464
0.000253803
0.000267865
0.000277814
0.000290107
0.000301054
0.000322526
0.000311534
0.000288787
0.000259924
0.000238976
0.000185272
0.000119068
0.000122058
0.000124296
0.000119201
0.000113858
0.000107426
0.000106112
0.000137244
0.000198059
0.00022637
0.00024209
0.000267598
0.000295541
0.000312892
0.000329561
0.000320759
0.000296232
0.000252018
0.000226141
0.000190986
0.000157933
0.000125632
0.000134005
0.000131397
0.00012192
0.000110784
0.000117025
0.000148567
0.00017828
0.000199243
0.000210787
0.000268348
0.000303349
0.000319597
0.000333498
0.000328298
0.000308707
0.000277843
0.000231904
0.000210022
0.000189683
0.00016135
0.000138555
0.000130681
0.000132691
0.000144375
0.000159287
0.000184634
0.000211606
0.000225911
0.000255198
0.000286601
0.000311888
0.000323163
0.000336544
0.000335824
0.000325017
0.000307677
0.000288013
0.000272167
0.000257441
0.000242999
0.000227956
0.000219716
0.000230001
0.000240755
0.00025058
0.000260365
0.000271003
0.000281862
0.000295173
0.000310193
0.000322509
0.000326149
0.000339683
0.000344201
0.000341705
0.00033546
0.000327616
0.000319795
0.000311635
0.000302765
0.000293281
0.000284793
0.000288842
0.000295048
0.000301398
0.000307594
0.000313529
0.000319017
0.000324439
0.000329569
0.000332406
0.000328988
0.000343309
0.000353063
0.000357616
0.000359246
0.000358968
0.000356699
0.000352339
0.000346095
0.000338091
0.00032838
0.000329032
0.000333261
0.000338066
0.00034243
0.000345717
0.000347396
0.000347418
0.000345792
0.000341561
0.000331872
0.000347872
0.000363074
0.000373652
0.000381098
0.000385985
0.000387953
0.000386715
0.000382281
0.00037482
0.000363388
0.000361428
0.000364761
0.000368882
0.000372103
0.00037338
0.000371902
0.00036766
0.000360921
0.000350958
0.000335444
0.000354282
0.000375912
0.000392414
0.000404625
0.00041343
0.000418716
0.000420162
0.000417759
0.0004111
0.000397703
0.000393189
0.000396265
0.000399916
0.000402165
0.000401562
0.000397027
0.000388982
0.000377854
0.000362573
0.000340698
0.000363798
0.000391757
0.000413832
0.000429953
0.000442227
0.000451092
0.000456555
0.000458491
0.000455992
0.000445419
0.000437856
0.000438695
0.00043873
0.000436739
0.0004321
0.000424328
0.000413181
0.000398215
0.000377273
0.000348916
0.000301627
0.000305577
0.000296506
0.00028002
0.000257296
0.000193676
0.00011839
0.000114326
0.000111354
0.000108174
0.000106748
0.000108974
0.000118703
0.000151357
0.000233607
0.000262585
0.000277784
0.000289794
0.000301655
0.000301232
0.000311534
0.000425041
0.000441764
0.000390535
0.000318879
0.00024722
0.00022307
0.000272578
0.000317146
0.000287867
0.000247703
0.000225439
0.00020976
0.000213265
0.000259891
0.000310481
0.0003487
0.000379873
0.000409929
0.000313778
0.000320759
0.000473838
0.000517719
0.000472516
0.000365584
0.000291974
0.000257531
0.000278442
0.000354993
0.000366212
0.000309358
0.000261803
0.000243694
0.000252964
0.000264831
0.000286581
0.000323696
0.000419164
0.000464833
0.000321699
0.000328298
0.000499384
0.000552437
0.000503353
0.000387598
0.000316939
0.000272277
0.000253008
0.000290478
0.000352774
0.000318106
0.00025806
0.00024567
0.000261006
0.000283836
0.000295006
0.0003377
0.000462945
0.000501756
0.000326415
0.000335824
0.000514335
0.000571974
0.000529836
0.000417511
0.000345024
0.000293658
0.000256978
0.000249878
0.000264926
0.000253114
0.000239302
0.000248519
0.000274094
0.00030652
0.000333764
0.000401883
0.000498005
0.000515258
0.000330228
0.000344201
0.000520384
0.000580947
0.000567063
0.000483469
0.000396422
0.000340008
0.000298296
0.000278092
0.000276892
0.000277408
0.00027997
0.00029298
0.000317043
0.000352249
0.000403778
0.000468461
0.000522869
0.000509965
0.000334351
0.000353063
0.000519098
0.000578083
0.000597611
0.000581989
0.000524057
0.000443962
0.000386217
0.000350987
0.000338334
0.000341826
0.000352209
0.000371873
0.000412607
0.000462267
0.000501616
0.000525528
0.000528022
0.000493365
0.000339823
0.000363074
0.000511668
0.000565215
0.000611437
0.000643109
0.000645649
0.000624941
0.000585805
0.000540959
0.000512015
0.000508028
0.000520082
0.000542054
0.000560376
0.000571346
0.000569512
0.000550556
0.00051779
0.000476959
0.000347052
0.000375912
0.000490213
0.000544458
0.000589078
0.000618782
0.000628916
0.000616638
0.000587061
0.000544288
0.000489997
0.000476632
0.000498558
0.000533655
0.000566515
0.00058033
0.000566223
0.000536062
0.000499645
0.000461303
0.000357207
0.000391757
0.000421939
0.000446527
0.000465679
0.000481381
0.000493617
0.000501768
0.000505295
0.000502808
0.000490965
0.000480217
0.00048103
0.000480451
0.000477014
0.000469879
0.000458582
0.000443575
0.000425132
0.000401303
0.00037071
0.000288515
0.000296506
0.000288905
0.000274148
0.000250711
0.000181661
0.000128521
0.000123808
0.000120537
0.000116537
0.000116717
0.000124208
0.000133693
0.000177546
0.000240457
0.000265425
0.000280379
0.000292158
0.000301652
0.000296232
0.000288787
0.000441764
0.000470098
0.000401291
0.000322308
0.000260337
0.000260265
0.000314343
0.000363972
0.000319645
0.00027833
0.000252308
0.000231254
0.000235764
0.000284966
0.00034285
0.00039524
0.000431521
0.000443811
0.000306462
0.000296232
0.000517719
0.000596177
0.000530699
0.000404621
0.000330094
0.000312801
0.000353246
0.00043178
0.000418692
0.000345304
0.000304894
0.000287864
0.000287077
0.000301876
0.000347795
0.000414276
0.000500482
0.000519072
0.000315172
0.000308707
0.000552437
0.000638313
0.000594985
0.00046691
0.000381444
0.0003399
0.000337792
0.000398302
0.000454077
0.000420448
0.000348871
0.000321284
0.000317451
0.000324624
0.000348128
0.00041974
0.000558742
0.000570641
0.000321967
0.000325017
0.000571974
0.000654658
0.000619396
0.00049736
0.000405593
0.000346446
0.000313832
0.000330569
0.000376514
0.000360538
0.000313381
0.000304896
0.000317154
0.000333768
0.000352258
0.000434593
0.000591917
0.000593366
0.000328586
0.000341705
0.000580947
0.000661324
0.000637328
0.000525829
0.000426478
0.000356252
0.000307328
0.000292335
0.000305857
0.000300255
0.000286336
0.00029441
0.000316633
0.000342556
0.000374219
0.000460975
0.000596696
0.000590507
0.000336257
0.000357616
0.000578083
0.00065629
0.000651012
0.000574158
0.000486822
0.000408485
0.000349055
0.000317052
0.000312679
0.00031045
0.000310216
0.000327341
0.000359439
0.000391702
0.000422897
0.000488527
0.000579815
0.000569387
0.000345278
0.000373652
0.000565215
0.000653693
0.000701063
0.000677777
0.000623426
0.000555812
0.00048764
0.000433222
0.000402171
0.000392901
0.000405581
0.000440681
0.000486815
0.000517873
0.000529328
0.000552241
0.000567256
0.000537858
0.000356587
0.000392414
0.000544458
0.00067734
0.000801191
0.000872781
0.000892982
0.000854444
0.000786594
0.000696487
0.000603305
0.000582557
0.000636612
0.000717244
0.000791155
0.000811378
0.000771112
0.000705741
0.000612644
0.000517045
0.000371301
0.000413832
0.000446527
0.000473167
0.000494778
0.000513368
0.000528631
0.000539346
0.000544486
0.000542149
0.000528778
0.000514938
0.000516212
0.000515299
0.000510617
0.0005011
0.000486396
0.000468014
0.000447008
0.000421347
0.000389025
0.000274719
0.00028002
0.000274148
0.000259922
0.000234192
0.000153123
0.000134631
0.000129099
0.000128418
0.00012676
0.000131665
0.000138247
0.000144759
0.000192049
0.000239008
0.000261613
0.000276172
0.000286767
0.00029398
0.000286783
0.000259924
0.000390535
0.000401291
0.000349117
0.00029017
0.000260102
0.000275583
0.000340101
0.000401191
0.000349703
0.000300673
0.000262923
0.000239031
0.000243855
0.000288729
0.00034397
0.000399804
0.000443956
0.000443093
0.000291674
0.000252018
0.000472516
0.000530699
0.000463209
0.000371181
0.000332756
0.000340484
0.000394288
0.000482748
0.00044686
0.00037347
0.00032622
0.000305368
0.000298506
0.000320267
0.000381517
0.000464898
0.000541514
0.0005374
0.000301082
0.000277843
0.000503353
0.000594985
0.000553077
0.000455
0.000397593
0.000378513
0.000396182
0.000471198
0.000521417
0.000449974
0.000382402
0.000355171
0.000345316
0.000352237
0.000399519
0.000493885
0.00061057
0.000606659
0.00031189
0.000307677
0.000529836
0.000619396
0.000600474
0.000510393
0.000439312
0.000395311
0.000378757
0.00041815
0.000491096
0.000475141
0.000399615
0.000370761
0.000367275
0.000373436
0.000402791
0.000497526
0.000646044
0.000649279
0.000324202
0.00033546
0.000567063
0.000637328
0.000625329
0.000545118
0.000465921
0.00040451
0.000363599
0.000365841
0.000412445
0.000412356
0.000362344
0.000354859
0.000366256
0.00037944
0.000401166
0.000491325
0.000652351
0.000665703
0.000336517
0.000359246
0.000597611
0.000651012
0.00064829
0.000588025
0.0005154
0.000447812
0.000392802
0.000367619
0.000381252
0.000385614
0.000366919
0.000378991
0.00040188
0.000413405
0.000423068
0.00049551
0.000634946
0.000652201
0.000349355
0.000381098
0.000611437
0.000701063
0.000731643
0.000703456
0.000651636
0.000588522
0.000521069
0.000459916
0.000420499
0.000412657
0.000432829
0.000486758
0.000541614
0.000557021
0.000543184
0.000574555
0.000634831
0.000602496
0.000364243
0.000404625
0.000589078
0.000801191
0.000956898
0.00099913
0.00101919
0.00100277
0.000945522
0.000845804
0.000722965
0.000688228
0.000767231
0.000878252
0.000961332
0.000971025
0.000897173
0.000835703
0.000733799
0.000571169
0.000382301
0.000429953
0.000465679
0.000494778
0.000519236
0.000541739
0.000560976
0.000575329
0.000583413
0.000583426
0.00057213
0.000554013
0.00055298
0.000549877
0.000542507
0.000529555
0.000510503
0.000488024
0.000464461
0.000436753
0.000402237
0.000253911
0.000257296
0.000250711
0.000234192
0.000204779
0.000141443
0.000137972
0.000133995
0.00013739
0.000136772
0.000142165
0.000148376
0.000155187
0.000190395
0.000226267
0.000249223
0.000264843
0.000274926
0.000279708
0.000273446
0.000238976
0.000318879
0.000322308
0.00029017
0.000256569
0.000260989
0.000282904
0.000353554
0.000439584
0.000386256
0.000322695
0.000277673
0.000250527
0.000245546
0.000274995
0.000318399
0.000366557
0.000407153
0.00040766
0.000269448
0.000226141
0.000365584
0.000404621
0.000371181
0.000333274
0.000330957
0.000351793
0.000414123
0.000519548
0.000478235
0.000397147
0.000343825
0.000319769
0.000308241
0.000321694
0.00037319
0.000453337
0.000525486
0.000519199
0.000280491
0.000231904
0.000387598
0.00046691
0.000455
0.000413774
0.000395768
0.000400495
0.000432771
0.000519982
0.000558875
0.00047279
0.000403263
0.000374979
0.000362853
0.000368202
0.000418118
0.000513808
0.000612326
0.00060227
0.00029886
0.000288013
0.000417511
0.00049736
0.000510393
0.000475305
0.000443425
0.000424225
0.000426302
0.00048354
0.000568545
0.000532369
0.000446986
0.000412294
0.000401998
0.00040459
0.000442687
0.000540227
0.000665255
0.000672966
0.000318008
0.000327616
0.000483469
0.000525829
0.000545118
0.000518154
0.000477865
0.000440044
0.000416853
0.00043966
0.000513716
0.000520648
0.000445723
0.000417881
0.000418195
0.000425351
0.000450592
0.000538231
0.000684326
0.000727016
0.000335302
0.000358968
0.000581989
0.000574158
0.000588025
0.000571864
0.000533372
0.000486641
0.000444812
0.000433077
0.000472446
0.000498376
0.000458944
0.000451389
0.000458592
0.000462253
0.000470542
0.000535443
0.000684755
0.000742837
0.000351717
0.000385985
0.000643109
0.000677777
0.000703456
0.000693444
0.000658738
0.000608349
0.000547054
0.000484473
0.00044452
0.000445751
0.000471448
0.000533861
0.000580882
0.000586698
0.000573002
0.000611675
0.000702936
0.000666948
0.00036971
0.00041343
0.000618782
0.000872781
0.00099913
0.00108096
0.00113216
0.00113261
0.00106772
0.000931581
0.00075996
0.000717195
0.000834497
0.000983973
0.00108029
0.0010782
0.000978683
0.000890426
0.000822973
0.000615698
0.000390209
0.000442227
0.000481381
0.000513368
0.000541739
0.000568959
0.000592281
0.000610429
0.000622048
0.000625514
0.000618028
0.000595943
0.000591109
0.000584118
0.000572871
0.000555906
0.000532799
0.000506043
0.000479234
0.000449092
0.000411976
0.000176694
0.000193676
0.000181661
0.000153123
0.000141443
0.000141479
0.000138521
0.00013554
0.000141829
0.000141734
0.000146019
0.000151123
0.000155278
0.000162305
0.000168392
0.000215216
0.000242025
0.000256241
0.000260941
0.000256396
0.000185272
0.00024722
0.000260337
0.000260102
0.000260989
0.000268974
0.000294708
0.000359232
0.000458665
0.000412876
0.000343733
0.000300538
0.000274383
0.000257574
0.00026299
0.000278462
0.000311602
0.000339488
0.000333602
0.000242627
0.000190986
0.000291974
0.000330094
0.000332756
0.000330957
0.000340881
0.00036228
0.000424293
0.000535031
0.000497166
0.000416444
0.000364523
0.000341175
0.000331337
0.000328444
0.000344443
0.000387721
0.000433987
0.000417959
0.000248073
0.000210022
0.000316939
0.000381444
0.000397593
0.000395768
0.000402306
0.000417777
0.000453057
0.000541665
0.000566548
0.000488153
0.000423379
0.000395708
0.00038582
0.000384166
0.000408101
0.00046567
0.000527747
0.000509695
0.000281576
0.000272167
0.000345024
0.000405593
0.000439312
0.000443425
0.000441126
0.000441496
0.00045702
0.00052131
0.000591517
0.000555832
0.000476622
0.000439416
0.00042856
0.000429222
0.000456385
0.000525649
0.000613393
0.000623747
0.000309262
0.000319795
0.000396422
0.000426478
0.000465921
0.000477865
0.000470851
0.000457505
0.000453699
0.000491552
0.000562685
0.000576319
0.000505571
0.000463306
0.000454311
0.000460101
0.000485474
0.000557031
0.000671831
0.000733026
0.000331998
0.000356699
0.000524057
0.000486822
0.0005154
0.000533372
0.000525517
0.000501354
0.000477014
0.000481616
0.00053162
0.000570131
0.000531398
0.000502367
0.000497357
0.000502673
0.000519023
0.000577244
0.000704247
0.000800478
0.000351876
0.000387953
0.000645649
0.000623426
0.000651636
0.000658738
0.000644065
0.000609113
0.00055549
0.000494873
0.000459941
0.000477492
0.000503433
0.000556866
0.000596589
0.000605472
0.000607003
0.000651965
0.000748331
0.000714647
0.000372391
0.000418716
0.000628916
0.000892982
0.00101919
0.00113216
0.00120416
0.0012057
0.00111035
0.000922421
0.000712657
0.000680844
0.000826275
0.00100858
0.00112733
0.00113364
0.00103855
0.000939128
0.000880565
0.000642157
0.000394592
0.000451092
0.000493617
0.000528631
0.000560976
0.000592281
0.000619658
0.000642095
0.000658563
0.000668205
0.000668773
0.000643083
0.000630626
0.000616764
0.000600024
0.000578532
0.000551685
0.000521386
0.000491061
0.000458322
0.000418585
9.7467e-05
0.00011839
0.000128521
0.000134631
0.000137972
0.000138521
0.000135797
0.000135481
0.000145857
0.000147579
0.00014812
0.000150216
0.000151724
0.000150629
0.000148763
0.000147519
0.000165994
0.000220406
0.000225941
0.000208561
0.000119068
0.00022307
0.000260265
0.000275583
0.000282904
0.000294708
0.000313864
0.000366977
0.000468626
0.000432674
0.000358234
0.00032398
0.000309286
0.000299033
0.000294081
0.000298632
0.000280788
0.000276922
0.00026945
0.000210556
0.000157933
0.000257531
0.000312801
0.000340484
0.000351793
0.00036228
0.000381114
0.000434657
0.000530573
0.00047152
0.000406363
0.000382538
0.000369001
0.000362785
0.000360826
0.000354894
0.000350932
0.000352152
0.000332103
0.000220311
0.000189683
0.000272277
0.0003399
0.000378513
0.000400495
0.000417777
0.000433117
0.000465256
0.000531316
0.000491322
0.000445851
0.000432739
0.000417284
0.000410821
0.000407995
0.00041049
0.000422224
0.000433979
0.000406608
0.000262987
0.000257441
0.000293658
0.000346446
0.000395311
0.000424225
0.000441496
0.000454811
0.000476809
0.000518468
0.000493805
0.000486716
0.000482934
0.00046176
0.000451553
0.000449456
0.000460886
0.000489299
0.000522737
0.000512195
0.000298695
0.000311635
0.000340008
0.000356252
0.00040451
0.000440044
0.000457505
0.000465354
0.000477801
0.00050097
0.000472668
0.000500382
0.000517999
0.000492854
0.000478938
0.00048228
0.000501213
0.00054517
0.000614811
0.000669214
0.000326204
0.000352339
0.000443962
0.000408485
0.000447812
0.000486641
0.000501354
0.000498015
0.000493055
0.000499647
0.000473421
0.000520554
0.000554986
0.000531072
0.000519939
0.000527544
0.000548379
0.000594877
0.000687603
0.000810523
0.000349133
0.000386715
0.000624941
0.000555812
0.000588522
0.000608349
0.000609113
0.000586082
0.000540553
0.000490158
0.000456681
0.000482863
0.000512731
0.000549865
0.000586448
0.000606257
0.000625113
0.000674231
0.000757754
0.000731117
0.000371533
0.000420162
0.000616638
0.000854444
0.00100277
0.00113261
0.0012057
0.00118152
0.0010416
0.000839378
0.000701021
0.000682307
0.000768757
0.000951682
0.00109745
0.00112901
0.00105482
0.000956881
0.000878021
0.000641792
0.000395004
0.000456555
0.000501768
0.000539346
0.000575329
0.000610429
0.000642095
0.000669801
0.00069381
0.000715081
0.000731717
0.000702273
0.000674402
0.000648817
0.000624073
0.000597041
0.000566147
0.000532504
0.000498899
0.000463895
0.000422083
9.71844e-05
0.000114326
0.000123808
0.000129099
0.000133995
0.00013554
0.000135481
0.00013846
0.00015215
0.000157182
0.000154254
0.000153062
0.000151785
0.000147911
0.000147933
0.000150969
0.000152915
0.000158079
0.000154892
0.000132591
0.000122058
0.000272578
0.000314343
0.000340101
0.000353554
0.000359232
0.000366977
0.000403034
0.00047214
0.000393569
0.000339609
0.000364596
0.000379277
0.000375995
0.000362966
0.000350588
0.000334677
0.00028191
0.000245274
0.000180849
0.000125632
0.000278442
0.000353246
0.000394288
0.000414123
0.000424293
0.000434657
0.000460667
0.000473715
0.00033894
0.000307675
0.00037427
0.000421993
0.000421754
0.000408719
0.000396122
0.000367397
0.000330328
0.000292165
0.000204939
0.00016135
0.000253008
0.000337792
0.000396182
0.000432771
0.000453057
0.000465256
0.000474418
0.000433088
0.000357931
0.000333865
0.00037365
0.000437037
0.000441624
0.00043273
0.000421659
0.000404383
0.000380072
0.000341395
0.000250017
0.000242999
0.000256978
0.000313832
0.000378757
0.000426302
0.00045702
0.000476809
0.000479899
0.000408524
0.000410508
0.000398779
0.000390981
0.000463181
0.000468399
0.000460845
0.000457552
0.000454478
0.000447151
0.000423421
0.000288251
0.000302765
0.000298296
0.000307328
0.000363599
0.000416853
0.000453699
0.000477801
0.000478267
0.000396482
0.000471872
0.000471893
0.000409242
0.000487906
0.000493879
0.00049086
0.000497859
0.000514511
0.000542917
0.000577916
0.000318524
0.000346095
0.000386217
0.000349055
0.000392802
0.000444812
0.000477014
0.000493055
0.000491533
0.000423123
0.000535923
0.000556869
0.000466932
0.000528727
0.000531051
0.000536467
0.000553715
0.000584506
0.00064455
0.000773289
0.000343507
0.000382281
0.000585805
0.00048764
0.000521069
0.000547054
0.00055549
0.000540553
0.000508798
0.000481559
0.000606011
0.00061533
0.000493133
0.00052282
0.000555031
0.00058562
0.000618286
0.000669043
0.000731825
0.00071975
0.000367013
0.000417759
0.000587061
0.000786594
0.000945522
0.00106772
0.00111035
0.0010416
0.000889803
0.000817031
0.000907959
0.000868966
0.000742194
0.000832763
0.000988242
0.00105411
0.00101342
0.000930469
0.000838892
0.000618722
0.000391391
0.000458491
0.000505295
0.000544486
0.000583413
0.000622048
0.000658563
0.00069381
0.000730435
0.000771501
0.000813494
0.000780314
0.00072585
0.000681443
0.000644889
0.000610655
0.000575152
0.000538202
0.000501798
0.000465374
0.000422414
9.63136e-05
0.000111354
0.000120537
0.000128418
0.00013739
0.000141829
0.000145857
0.00015215
0.000162878
0.000167289
0.000168183
0.000170292
0.000168163
0.000161462
0.000157633
0.000155202
0.000154544
0.000151626
0.000143825
0.00012886
0.000124296
0.000317146
0.000363972
0.000401191
0.000439584
0.000458665
0.000468626
0.00047214
0.000414504
0.000427223
0.000409326
0.000401096
0.000426638
0.00040602
0.000380923
0.000369701
0.000358421
0.00032101
0.000272381
0.000164656
0.000134005
0.000354993
0.00043178
0.000482748
0.000519548
0.000535031
0.000530573
0.000473715
0.0003605
0.000577645
0.000561804
0.000359034
0.000414973
0.000461166
0.000446797
0.000426306
0.000392141
0.000336068
0.000276206
0.000190542
0.000138555
0.000290478
0.000398302
0.000471198
0.000519982
0.000541665
0.000531316
0.000433088
0.000380493
0.000778359
0.000754354
0.000395112
0.000375408
0.000471798
0.000454724
0.000425785
0.000391372
0.000345469
0.000297714
0.000237075
0.000227956
0.000249878
0.000330569
0.00041815
0.00048354
0.00052131
0.000518468
0.000408524
0.000452497
0.000997777
0.000947309
0.000459218
0.000362544
0.000478445
0.000464502
0.000441514
0.000416634
0.000385313
0.000357535
0.000277297
0.000293281
0.000278092
0.000292335
0.000365841
0.00043966
0.000491552
0.00050097
0.000396482
0.000549184
0.00120971
0.00111605
0.000530268
0.000373377
0.000495751
0.000488253
0.000475945
0.000469108
0.000469846
0.000494861
0.000309422
0.000338091
0.000350987
0.000317052
0.000367619
0.000433077
0.000481616
0.000499647
0.000423123
0.000653089
0.00138279
0.00124986
0.0006104
0.000431894
0.000530832
0.000532916
0.000536177
0.000548573
0.00058391
0.000704246
0.000335494
0.00037482
0.000540959
0.000433222
0.000459916
0.000484473
0.000494873
0.000490158
0.000481559
0.000765298
0.00148004
0.00132109
0.000663378
0.000476718
0.000516153
0.00054943
0.000587765
0.000635309
0.000680501
0.000693932
0.000359227
0.0004111
0.000544288
0.000696487
0.000845804
0.000931581
0.000922421
0.000839378
0.000817031
0.00103875
0.00140187
0.00130708
0.00089304
0.000736356
0.000823845
0.000919289
0.000922177
0.000863504
0.000770643
0.000577381
0.00038369
0.000455992
0.000502808
0.000542149
0.000583426
0.000625514
0.000668205
0.000715081
0.000771501
0.000840068
0.000905918
0.000872762
0.00078601
0.000715176
0.000661828
0.000618298
0.000577658
0.000537442
0.000498637
0.000461989
0.000419046
9.45867e-05
0.000108174
0.000116537
0.00012676
0.000136772
0.000141734
0.000147579
0.000157182
0.000167289
0.00025405
0.000306518
0.000191548
0.000185679
0.000179391
0.000174762
0.000169539
0.000162539
0.000153329
0.000138865
0.000122527
0.000119201
0.000287867
0.000319645
0.000349703
0.000386256
0.000412876
0.000432674
0.000393569
0.000427223
0.000292774
0.00033772
0.00045963
0.000355913
0.000353738
0.000342601
0.000339241
0.00034004
0.00033191
0.000284708
0.000154647
0.000131397
0.000366212
0.000418692
0.00044686
0.000478235
0.000497166
0.00047152
0.00033894
0.000577645
0.000433846
0.000481391
0.000600491
0.000355363
0.000422589
0.00041813
0.000413418
0.000398776
0.000340873
0.000266028
0.000178746
0.000130681
0.000352774
0.000454077
0.000521417
0.000558875
0.000566548
0.000491322
0.000357931
0.000778359
0.000578659
0.000620137
0.000741539
0.000335057
0.000456654
0.000454104
0.000420403
0.000373844
0.00031869
0.000270578
0.00023169
0.000219716
0.000264926
0.000376514
0.000491096
0.000568545
0.000591517
0.000493805
0.000410508
0.000997777
0.000729436
0.000760847
0.000880993
0.000330884
0.000464645
0.000465077
0.000419435
0.000377206
0.000338011
0.000320173
0.000272571
0.000284793
0.000276892
0.000305857
0.000412445
0.000513716
0.000562685
0.000472668
0.000471872
0.00120971
0.000880755
0.000904553
0.00101039
0.000348457
0.000473468
0.000487592
0.000447292
0.000419454
0.000409754
0.000443789
0.000302948
0.00032838
0.000338334
0.000312679
0.000381252
0.000472446
0.00053162
0.000473421
0.000535923
0.00138279
0.00101799
0.00104348
0.00110774
0.000400878
0.000506984
0.000532638
0.000509667
0.000500707
0.000524001
0.000648861
0.000327457
0.000363388
0.000512015
0.000402171
0.000420499
0.00044452
0.000459941
0.000456681
0.000606011
0.00148004
0.00112267
0.00115866
0.00113678
0.000453338
0.000491963
0.000523254
0.000551452
0.000588648
0.000623153
0.000665804
0.00034979
0.000397703
0.000489997
0.000603305
0.000722965
0.00075996
0.000712657
0.000701021
0.000907959
0.00140187
0.00121051
0.00124329
0.00115359
0.000747464
0.000688922
0.000793318
0.000824852
0.000784729
0.000697626
0.000532222
0.000372916
0.000445419
0.000490965
0.000528778
0.00057213
0.000618028
0.000668773
0.000731717
0.000813494
0.000905918
0.000892129
0.000887871
0.000838685
0.000746308
0.000673358
0.000619128
0.000572897
0.000529375
0.000488522
0.000452791
0.000410806
9.32671e-05
0.000106748
0.000116717
0.000131665
0.000142165
0.000146019
0.00014812
0.000154254
0.000168183
0.000306518
0.000457634
0.000224997
0.00021755
0.000212705
0.000208168
0.000201587
0.000189967
0.000170298
0.000143967
0.000122748
0.000113858
0.000247703
0.00027833
0.000300673
0.000322695
0.000343733
0.000358234
0.000339609
0.000409326
0.00033772
0.00043094
0.000401985
0.000327849
0.000316828
0.000311919
0.000309878
0.000306174
0.00030149
0.000273924
0.000146127
0.00012192
0.000309358
0.000345304
0.00037347
0.000397147
0.000416444
0.000406363
0.000307675
0.000561804
0.000481391
0.000569385
0.000494129
0.00038115
0.000391884
0.000384905
0.000374888
0.000358503
0.000322235
0.0002513
0.000176326
0.000132691
0.000318106
0.000420448
0.000449974
0.00047279
0.000488153
0.000445851
0.000333865
0.000754354
0.000620137
0.000718399
0.00055849
0.000389348
0.000442385
0.000424402
0.000391463
0.000347182
0.000294763
0.000256089
0.000235353
0.000230001
0.000253114
0.000360538
0.000475141
0.000532369
0.000555832
0.000486716
0.000398779
0.000947309
0.000760847
0.000881565
0.000621878
0.000378577
0.000477881
0.00045023
0.000396895
0.00034464
0.000308043
0.000306761
0.000275652
0.000288842
0.000277408
0.000300255
0.000412356
0.000520648
0.000576319
0.000500382
0.000471893
0.00111605
0.000904553
0.00105275
0.000689651
0.000377213
0.000514077
0.000487901
0.000428604
0.000383529
0.000374893
0.000428907
0.000305052
0.000329032
0.000341826
0.00031045
0.000385614
0.000498376
0.000570131
0.000520554
0.000556869
0.00124986
0.00104348
0.00121671
0.000755803
0.000420534
0.00055669
0.000543007
0.000497442
0.000466737
0.000486798
0.000635823
0.000329037
0.000361428
0.000508028
0.000392901
0.000412657
0.000445751
0.000477492
0.000482863
0.00061533
0.00132109
0.00115866
0.00136217
0.000784111
0.000477265
0.00052492
0.000533126
0.000537304
0.000557326
0.000585125
0.000631831
0.000351197
0.000393189
0.000476632
0.000582557
0.000688228
0.000717195
0.000680844
0.000682307
0.000868966
0.00130708
0.00124329
0.00141351
0.000958073
0.000720164
0.000758376
0.000829765
0.000824891
0.00076948
0.000674928
0.000512918
0.000375493
0.000437856
0.000480217
0.000514938
0.000554013
0.000595943
0.000643083
0.000702273
0.000780314
0.000872762
0.000887871
0.00095468
0.000839084
0.0007459
0.00067793
0.000624564
0.000577509
0.000533616
0.000493159
0.000457089
0.00041491
9.18901e-05
0.000108974
0.000124208
0.000138247
0.000148376
0.000151123
0.000150216
0.000153062
0.000170292
0.000191548
0.000224997
0.000232375
0.000236355
0.00023873
0.000239686
0.00023823
0.00023287
0.000221249
0.0001979
0.000155504
0.000107426
0.000225439
0.000252308
0.000262923
0.000277673
0.000300538
0.00032398
0.000364596
0.000401096
0.00045963
0.000401985
0.000330811
0.000328648
0.0003263
0.000325357
0.000321174
0.00030911
0.000285517
0.000246488
0.000147416
0.000110784
0.000261803
0.000304894
0.00032622
0.000343825
0.000364523
0.000382538
0.00037427
0.000359034
0.000600491
0.000494129
0.0003749
0.00038916
0.000386519
0.000380098
0.000365891
0.00033887
0.000295136
0.000238834
0.000185981
0.000144375
0.00025806
0.000348871
0.000382402
0.000403263
0.000423379
0.000432739
0.00037365
0.000395112
0.000741539
0.00055849
0.000378135
0.000437719
0.000435647
0.000417702
0.000381909
0.000330387
0.000280877
0.000253963
0.000243296
0.000240755
0.000239302
0.000313381
0.000399615
0.000446986
0.000476622
0.000482934
0.000390981
0.000459218
0.000880993
0.000621878
0.000366565
0.000476056
0.000478831
0.000448616
0.000394047
0.000332929
0.000299302
0.000310092
0.000281594
0.000295048
0.00027997
0.000286336
0.000362344
0.000445723
0.000505571
0.000517999
0.000409242
0.000530268
0.00101039
0.000689651
0.000365397
0.000510552
0.000525916
0.000491138
0.000431063
0.000374763
0.000368622
0.000440034
0.000309942
0.000333261
0.000352209
0.000310216
0.000366919
0.000458944
0.000531398
0.000554986
0.000466932
0.0006104
0.00110774
0.000755803
0.000407888
0.000544583
0.000569953
0.000548005
0.000504348
0.000462599
0.000479316
0.000651214
0.000333562
0.000364761
0.000520082
0.000405581
0.000432829
0.000471448
0.000503433
0.000512731
0.000493133
0.000663378
0.00113678
0.000784111
0.000496048
0.000544165
0.000564694
0.000566782
0.000557099
0.000558714
0.000579305
0.000610469
0.000355859
0.000396265
0.000498558
0.000636612
0.000767231
0.000834497
0.000826275
0.000768757
0.000742194
0.00089304
0.00115359
0.000958073
0.000760321
0.000865455
0.000962219
0.000966035
0.000910359
0.000822256
0.000707193
0.000527287
0.000381725
0.000438695
0.00048103
0.000516212
0.00055298
0.000591109
0.000630626
0.000674402
0.00072585
0.00078601
0.000838685
0.000839084
0.00077119
0.00071455
0.000665937
0.000621166
0.000578559
0.000537575
0.000499142
0.000462576
0.000420038
9.32776e-05
0.000118703
0.000133693
0.000144759
0.000155187
0.000155278
0.000151724
0.000151785
0.000168163
0.000185679
0.00021755
0.000236355
0.000247517
0.000254769
0.000259407
0.000261502
0.000260617
0.000255968
0.000246779
0.000233585
0.000106112
0.00020976
0.000231254
0.000239031
0.000250527
0.000274383
0.000309286
0.000379277
0.000426638
0.000355913
0.000327849
0.000328648
0.000344979
0.000359435
0.00036961
0.000371924
0.000360869
0.000331412
0.00027967
0.000184619
0.000117025
0.000243694
0.000287864
0.000305368
0.000319769
0.000341175
0.000369001
0.000421993
0.000414973
0.000355363
0.00038115
0.00038916
0.000399781
0.000409985
0.000411172
0.000397594
0.000366316
0.000318965
0.000261967
0.000200188
0.000159287
0.00024567
0.000321284
0.000355171
0.000374979
0.000395708
0.000417284
0.000437037
0.000375408