/*--------------------------------*- C++ -*----------------------------------*\
  =========                 |
  \\      /  F ield         | OpenFOAM: The Open Source CFD Toolbox
   \\    /   O peration     | Website:  https://openfoam.org
    \\  /    A nd           | Version:  8
     \\/     M anipulation  |
\*---------------------------------------------------------------------------*/
FoamFile
{
    version     2.0;
    format      ascii;
    class       volScalarField;
    location    "1800";
    object      epsilon;
}
// * * * * * * * * * * * * * * * * * * * * * * * * * * * * * * * * * * * * * //

dimensions      [0 2 -3 0 0 0 0];

internalField   nonuniform List<scalar> 
4000
(
2.71789e-07
2.49425e-07
2.18313e-07
1.88516e-07
1.48657e-07
4.88475e-08
8.43097e-09
8.39285e-09
8.17056e-09
7.75381e-09
7.43604e-09
7.10899e-09
7.48835e-09
1.33854e-08
8.98423e-08
1.48587e-07
1.74588e-07
1.94633e-07
2.21653e-07
2.47829e-07
3.04801e-07
2.74753e-07
2.18863e-07
1.59748e-07
1.24175e-07
5.73642e-08
1.51629e-08
1.66599e-08
1.75614e-08
1.55006e-08
1.35066e-08
1.13213e-08
1.10478e-08
2.35196e-08
7.10366e-08
1.05339e-07
1.2835e-07
1.7325e-07
2.34034e-07
2.78158e-07
3.25114e-07
2.99821e-07
2.36151e-07
1.45187e-07
1.05288e-07
6.32741e-08
3.57353e-08
1.80314e-08
2.21114e-08
2.07669e-08
1.65739e-08
1.24321e-08
1.4746e-08
3.00294e-08
5.21076e-08
7.20037e-08
8.42965e-08
1.73985e-07
2.52902e-07
2.96367e-07
3.36845e-07
3.21387e-07
2.67181e-07
1.94503e-07
1.13098e-07
8.38595e-08
6.16263e-08
3.78543e-08
2.41457e-08
2.03806e-08
2.10355e-08
2.69084e-08
3.6329e-08
5.67441e-08
8.49894e-08
1.03595e-07
1.49669e-07
2.12597e-07
2.7485e-07
3.06348e-07
3.4611e-07
3.43926e-07
3.11731e-07
2.64286e-07
2.16586e-07
1.8261e-07
1.54375e-07
1.29752e-07
1.06838e-07
9.56026e-08
1.0974e-07
1.25946e-07
1.42099e-07
1.59483e-07
1.79904e-07
2.02446e-07
2.32589e-07
2.70189e-07
3.04078e-07
3.14912e-07
3.55843e-07
3.70242e-07
3.62203e-07
3.42598e-07
3.18981e-07
2.9659e-07
2.74415e-07
2.51649e-07
2.28704e-07
2.09381e-07
2.18459e-07
2.32835e-07
2.48171e-07
2.63745e-07
2.79242e-07
2.94107e-07
3.09369e-07
3.24391e-07
3.33043e-07
3.23198e-07
3.67329e-07
3.99531e-07
4.15151e-07
4.20803e-07
4.19777e-07
4.11821e-07
3.96892e-07
3.76177e-07
3.5071e-07
3.21481e-07
3.2355e-07
3.36143e-07
3.50784e-07
3.64393e-07
3.74824e-07
3.80171e-07
3.8017e-07
3.74861e-07
3.6137e-07
3.31756e-07
3.82147e-07
4.34472e-07
4.73538e-07
5.02405e-07
5.21987e-07
5.30032e-07
5.25011e-07
5.07175e-07
4.78179e-07
4.36093e-07
4.294e-07
4.41266e-07
4.56164e-07
4.6796e-07
4.72504e-07
4.66662e-07
4.50719e-07
4.26335e-07
3.92052e-07
3.42557e-07
4.03655e-07
4.8221e-07
5.48551e-07
6.01405e-07
6.4156e-07
6.66546e-07
6.73573e-07
6.62192e-07
6.3128e-07
5.72132e-07
5.53464e-07
5.66305e-07
5.81732e-07
5.9119e-07
5.88068e-07
5.67958e-07
5.33885e-07
4.89261e-07
4.32305e-07
3.58897e-07
4.3707e-07
5.45865e-07
6.43526e-07
7.2182e-07
7.85595e-07
8.34023e-07
8.64997e-07
8.76417e-07
8.62653e-07
8.04762e-07
7.65337e-07
7.69249e-07
7.6893e-07
7.58031e-07
7.33628e-07
6.94264e-07
6.40571e-07
5.73181e-07
4.87298e-07
3.85529e-07
2.49425e-07
2.59497e-07
2.3705e-07
1.99624e-07
1.54655e-07
6.46731e-08
1.51507e-08
1.36302e-08
1.2626e-08
1.16153e-08
1.11813e-08
1.19376e-08
1.54945e-08
3.18959e-08
1.16211e-07
1.64678e-07
1.94829e-07
2.21068e-07
2.49463e-07
2.4852e-07
2.74753e-07
2.69928e-07
2.29788e-07
1.6676e-07
1.30753e-07
7.25648e-08
3.83344e-08
2.07992e-08
1.60383e-08
1.51488e-08
1.55693e-08
1.87054e-08
2.66799e-08
4.71317e-08
9.33886e-08
1.23515e-07
1.38666e-07
1.84604e-07
2.58202e-07
2.80893e-07
2.99821e-07
2.99272e-07
2.77863e-07
2.01881e-07
1.27148e-07
7.78164e-08
4.89121e-08
3.41374e-08
2.65385e-08
2.12201e-08
1.95162e-08
2.29154e-08
3.23132e-08
4.84539e-08
7.25164e-08
8.31569e-08
1.04136e-07
2.01071e-07
2.91509e-07
3.02663e-07
3.21387e-07
3.23936e-07
3.13775e-07
2.41883e-07
1.37794e-07
8.90556e-08
6.05899e-08
4.11479e-08
3.06583e-08
2.66264e-08
2.40158e-08
2.62469e-08
3.86057e-08
5.33011e-08
7.53042e-08
8.70569e-08
1.28355e-07
2.45381e-07
3.23398e-07
3.16095e-07
3.43926e-07
3.46849e-07
3.40427e-07
2.85967e-07
1.91473e-07
1.37804e-07
1.02464e-07
7.56808e-08
5.79088e-08
5.18354e-08
5.56521e-08
6.30302e-08
7.63725e-08
9.51626e-08
1.18364e-07
1.43803e-07
2.03739e-07
2.86916e-07
3.36954e-07
3.27198e-07
3.70242e-07
3.63726e-07
3.54516e-07
3.24275e-07
2.66042e-07
2.04891e-07
1.64318e-07
1.32638e-07
1.11389e-07
1.02733e-07
1.0758e-07
1.16201e-07
1.29112e-07
1.47102e-07
1.73337e-07
2.13037e-07
2.61783e-07
3.09947e-07
3.33451e-07
3.39482e-07
3.99531e-07
3.7813e-07
3.60817e-07
3.44899e-07
3.29065e-07
2.88905e-07
2.33349e-07
1.92104e-07
1.63427e-07
1.49921e-07
1.53476e-07
1.6231e-07
1.7615e-07
2.01838e-07
2.34229e-07
2.65648e-07
2.91534e-07
3.12167e-07
3.296e-07
3.56278e-07
4.34472e-07
4.07911e-07
3.92629e-07
3.8994e-07
4.00933e-07
4.00674e-07
3.83158e-07
3.4627e-07
2.96705e-07
2.53253e-07
2.55477e-07
2.78705e-07
3.04902e-07
3.23831e-07
3.35176e-07
3.37267e-07
3.31546e-07
3.32252e-07
3.50774e-07
3.79371e-07
4.8221e-07
5.03535e-07
5.28231e-07
5.5486e-07
5.83917e-07
6.05096e-07
6.03948e-07
5.75434e-07
5.16547e-07
4.23078e-07
4.09389e-07
4.45342e-07
4.83535e-07
5.12607e-07
5.20816e-07
4.99702e-07
4.69231e-07
4.46355e-07
4.33572e-07
4.13583e-07
5.45865e-07
6.82199e-07
8.08723e-07
9.1754e-07
1.01382e-06
1.09348e-06
1.14902e-06
1.174e-06
1.15753e-06
1.07865e-06
1.01069e-06
1.01492e-06
1.01045e-06
9.88136e-07
9.43586e-07
8.76324e-07
7.92448e-07
6.97299e-07
5.86394e-07
4.62399e-07
2.18313e-07
2.3705e-07
2.19206e-07
1.87285e-07
1.43075e-07
5.33484e-08
1.93685e-08
1.72761e-08
1.60004e-08
1.45617e-08
1.46727e-08
1.77581e-08
2.19922e-08
5.16848e-08
1.2687e-07
1.70212e-07
2.00501e-07
2.26775e-07
2.49773e-07
2.36658e-07
2.18863e-07
2.29788e-07
2.01111e-07
1.56157e-07
1.22766e-07
7.05253e-08
4.30473e-08
2.68664e-08
2.07698e-08
1.96921e-08
2.17583e-08
2.67041e-08
3.59245e-08
5.8275e-08
1.02424e-07
1.28135e-07
1.43425e-07
1.85459e-07
2.48923e-07
2.62268e-07
2.36151e-07
2.77863e-07
2.73364e-07
2.01289e-07
1.28168e-07
8.0785e-08
5.56762e-08
4.30002e-08
3.37181e-08
2.64611e-08
2.62506e-08
3.18266e-08
4.21143e-08
5.89262e-08
8.02428e-08
9.54917e-08
1.26902e-07
2.08133e-07
2.87477e-07
2.85297e-07
2.67181e-07
3.13775e-07
3.00441e-07
2.32477e-07
1.42953e-07
9.20517e-08
6.43982e-08
4.75584e-08
3.73352e-08
3.18868e-08
3.29655e-08
3.76665e-08
4.56954e-08
5.70459e-08
7.25934e-08
8.29951e-08
1.28473e-07
2.47734e-07
3.24277e-07
3.04015e-07
3.11731e-07
3.40427e-07
3.10577e-07
2.5072e-07
1.63395e-07
1.11082e-07
8.00035e-08
5.77573e-08
4.24815e-08
3.55696e-08
3.72956e-08
4.51704e-08
5.7456e-08
6.8624e-08
8.16898e-08
9.54859e-08
1.51546e-07
2.72197e-07
3.42346e-07
3.229e-07
3.62203e-07
3.54516e-07
3.09087e-07
2.5555e-07
1.86181e-07
1.3455e-07
1.00884e-07
7.5277e-08
5.75725e-08
4.99973e-08
5.18118e-08
5.86408e-08
6.98645e-08
8.27742e-08
9.82675e-08
1.19509e-07
1.71572e-07
2.659e-07
3.39927e-07
3.45695e-07
4.15151e-07
3.60817e-07
2.99239e-07
2.40108e-07
1.95762e-07
1.56991e-07
1.22765e-07
9.57381e-08
7.63746e-08
6.73585e-08
6.80875e-08
7.37439e-08
8.39846e-08
9.79272e-08
1.13313e-07
1.3244e-07
1.69133e-07
2.39516e-07
3.29348e-07
3.73972e-07
4.73538e-07
3.92629e-07
3.31448e-07
2.57264e-07
2.22028e-07
2.02681e-07
1.77383e-07
1.49587e-07
1.22874e-07
1.03315e-07
9.81762e-08
1.05351e-07
1.19823e-07
1.36826e-07
1.50007e-07
1.58704e-07
1.84717e-07
2.58016e-07
3.42318e-07
4.11731e-07
5.48551e-07
5.28231e-07
5.65057e-07
6.20786e-07
6.58829e-07
6.87549e-07
6.87942e-07
6.36431e-07
5.3289e-07
4.04681e-07
3.68566e-07
4.30198e-07
5.15988e-07
5.8638e-07
6.1143e-07
5.62439e-07
5.10893e-07
4.66767e-07
4.52173e-07
4.64671e-07
6.43526e-07
8.08723e-07
9.6256e-07
1.10093e-06
1.23022e-06
1.34382e-06
1.42785e-06
1.46985e-06
1.452e-06
1.34853e-06
1.2472e-06
1.25508e-06
1.2473e-06
1.2125e-06
1.14467e-06
1.04564e-06
9.30707e-07
8.10585e-07
6.7884e-07
5.34518e-07
1.88516e-07
1.99624e-07
1.87285e-07
1.59576e-07
1.1653e-07
3.23021e-08
2.22274e-08
1.95218e-08
1.93531e-08
1.87974e-08
2.10587e-08
2.4348e-08
2.78912e-08
6.56895e-08
1.24696e-07
1.63084e-07
1.91739e-07
2.14656e-07
2.31444e-07
2.14993e-07
1.59748e-07
1.6676e-07
1.56157e-07
1.32185e-07
1.01905e-07
6.30594e-08
4.08148e-08
2.95254e-08
2.67588e-08
2.57065e-08
2.77469e-08
3.20383e-08
4.21724e-08
6.43376e-08
1.02016e-07
1.25921e-07
1.41273e-07
1.71585e-07
2.1986e-07
2.2676e-07
1.45187e-07
2.01881e-07
2.01289e-07
1.51615e-07
1.04865e-07
7.31649e-08
5.5171e-08
4.42604e-08
3.74452e-08
3.19061e-08
3.25936e-08
3.77383e-08
4.83366e-08
6.36865e-08
8.36027e-08
1.036e-07
1.3817e-07
2.02612e-07
2.661e-07
2.4962e-07
1.94503e-07
2.41883e-07
2.32477e-07
1.79207e-07
1.20113e-07
8.43152e-08
6.36515e-08
5.03162e-08
4.17654e-08
3.94902e-08
3.94345e-08
4.22881e-08
4.9954e-08
6.16832e-08
7.45083e-08
9.12849e-08
1.40187e-07
2.374e-07
3.12192e-07
2.77248e-07
2.64286e-07
2.85967e-07
2.5072e-07
1.97201e-07
1.35695e-07
9.63679e-08
7.18919e-08
5.41735e-08
4.1765e-08
3.71477e-08
4.08424e-08
4.65383e-08
5.32076e-08
6.19208e-08
7.24694e-08
8.6605e-08
1.40481e-07
2.52859e-07
3.41753e-07
3.10774e-07
3.42598e-07
3.24275e-07
2.5555e-07
1.99435e-07
1.45432e-07
1.06762e-07
8.00054e-08
5.92593e-08
4.41413e-08
3.68415e-08
3.78949e-08
4.48081e-08
5.36018e-08
6.29844e-08
7.38474e-08
8.73057e-08
1.3476e-07
2.40464e-07
3.47932e-07
3.47022e-07
4.20803e-07
3.44899e-07
2.40108e-07
1.84003e-07
1.45633e-07
1.16063e-07
9.14297e-08
7.03215e-08
5.37438e-08
4.43973e-08
4.34223e-08
4.97224e-08
6.07296e-08
7.06309e-08
7.888e-08
8.82769e-08
1.21951e-07
2.02464e-07
3.35379e-07
3.87833e-07
5.02405e-07
3.8994e-07
2.57264e-07
2.08735e-07
2.01211e-07
1.96624e-07
1.83784e-07
1.60656e-07
1.29596e-07
9.89425e-08
8.80746e-08
1.03919e-07
1.34198e-07
1.5993e-07
1.62004e-07
1.43781e-07
1.48742e-07
2.12841e-07
3.43525e-07
4.39246e-07
6.01405e-07
5.5486e-07
6.20786e-07
7.03279e-07
8.42483e-07
9.80332e-07
1.05065e-06
1.01936e-06
8.79672e-07
6.71215e-07
5.90127e-07
6.91567e-07
8.30337e-07
9.12976e-07
8.85273e-07
7.21576e-07
5.72217e-07
5.17187e-07
4.74964e-07
5.07599e-07
7.2182e-07
9.1754e-07
1.10093e-06
1.27295e-06
1.4465e-06
1.60704e-06
1.73461e-06
1.80996e-06
1.81154e-06
1.71008e-06
1.55448e-06
1.54382e-06
1.51643e-06
1.45471e-06
1.35129e-06
1.20911e-06
1.05539e-06
9.09555e-07
7.56386e-07
5.91104e-07
1.48657e-07
1.54655e-07
1.43075e-07
1.1653e-07
7.79353e-08
2.57924e-08
2.39341e-08
2.18057e-08
2.36752e-08
2.36493e-08
2.64663e-08
3.00003e-08
3.42985e-08
6.36926e-08
1.05624e-07
1.40906e-07
1.69085e-07
1.89192e-07
1.99398e-07
1.86464e-07
1.24175e-07
1.30753e-07
1.22766e-07
1.01905e-07
7.52981e-08
5.37478e-08
3.68349e-08
3.04439e-08
3.42072e-08
3.16934e-08
3.08012e-08
3.41226e-08
4.37559e-08
6.25574e-08
9.14466e-08
1.15585e-07
1.32319e-07
1.48753e-07
1.75543e-07
1.79323e-07
1.05288e-07
1.27148e-07
1.28168e-07
1.04865e-07
8.09493e-08
6.29519e-08
4.93565e-08
4.04235e-08
3.93035e-08
3.60055e-08
3.48681e-08
3.93661e-08
4.99078e-08
6.40432e-08
8.09535e-08
1.00591e-07
1.32117e-07
1.81801e-07
2.32989e-07
2.02709e-07
1.13098e-07
1.37794e-07
1.42953e-07
1.20113e-07
9.2344e-08
7.25797e-08
5.91397e-08
4.86992e-08
4.30088e-08
4.3476e-08
4.06112e-08
4.30078e-08
5.13281e-08
6.28809e-08
7.52235e-08
9.42234e-08
1.38853e-07
2.16109e-07
2.87766e-07
2.44649e-07
2.16586e-07
1.91473e-07
1.63395e-07
1.35695e-07
1.04915e-07
8.18933e-08
6.51373e-08
5.18611e-08
4.30386e-08
4.41142e-08
4.63734e-08
4.62971e-08
5.19287e-08
6.13229e-08
7.19365e-08
8.89816e-08
1.38251e-07
2.32558e-07
3.32065e-07
2.93889e-07
3.18981e-07
2.66042e-07
1.86181e-07
1.45432e-07
1.13544e-07
8.87423e-08
6.92878e-08
5.34842e-08
4.23331e-08
3.95974e-08
4.19143e-08
4.33557e-08
4.89529e-08
5.81811e-08
6.8962e-08
8.28121e-08
1.25324e-07
2.19771e-07
3.53784e-07
3.43747e-07
4.19777e-07
3.29065e-07
1.95762e-07
1.45633e-07
1.18889e-07
9.8664e-08
8.07578e-08
6.45061e-08
5.15149e-08
4.55987e-08
4.6756e-08
5.15672e-08
5.92465e-08
6.61026e-08
7.25311e-08
7.97756e-08
1.07142e-07
1.84612e-07
3.46227e-07
3.96187e-07
5.21987e-07
4.00933e-07
2.22028e-07
2.01211e-07
2.09847e-07
2.18449e-07
2.15481e-07
1.9475e-07
1.5695e-07
1.16421e-07
1.01511e-07
1.26477e-07
1.69726e-07
1.94373e-07
1.86482e-07
1.56245e-07
1.48076e-07
1.9546e-07
3.53206e-07
4.59762e-07
6.4156e-07
5.83917e-07
6.58829e-07
8.42483e-07
1.11089e-06
1.34107e-06
1.46791e-06
1.42736e-06
1.19532e-06
8.72347e-07
7.44774e-07
9.02829e-07
1.11687e-06
1.2232e-06
1.15459e-06
9.13595e-07
6.75354e-07
5.59758e-07
4.97245e-07
5.40238e-07
7.85595e-07
1.01382e-06
1.23022e-06
1.4465e-06
1.6768e-06
1.8929e-06
2.0738e-06
2.19617e-06
2.23492e-06
2.15763e-06
1.93573e-06
1.88647e-06
1.8185e-06
1.71367e-06
1.56392e-06
1.3752e-06
1.17732e-06
9.9976e-07
8.22847e-07
6.35428e-07
4.88475e-08
6.46731e-08
5.33484e-08
3.23021e-08
2.57924e-08
2.58625e-08
2.42292e-08
2.25744e-08
2.59752e-08
2.62773e-08
2.86524e-08
3.16365e-08
3.42037e-08
3.84753e-08
4.25335e-08
8.94929e-08
1.28773e-07
1.53055e-07
1.61808e-07
1.53669e-07
5.73642e-08
7.25648e-08
7.05253e-08
6.30594e-08
5.37478e-08
4.05028e-08
3.04315e-08
2.7164e-08
3.62952e-08
3.4211e-08
3.03309e-08
3.17771e-08
3.80609e-08
4.92915e-08
6.47587e-08
8.63535e-08
1.1155e-07
1.24836e-07
1.31676e-07
1.30535e-07
6.32741e-08
7.78164e-08
8.0785e-08
7.31649e-08
6.29519e-08
5.16883e-08
4.09387e-08
3.44233e-08
3.83424e-08
3.73398e-08
3.37762e-08
3.61928e-08
4.46335e-08
5.69088e-08
6.9211e-08
8.39915e-08
1.07005e-07
1.35659e-07
1.60877e-07
1.41379e-07
8.38595e-08
8.90556e-08
9.20517e-08
8.43152e-08
7.25797e-08
6.19983e-08
5.24723e-08
4.33741e-08
4.06294e-08
4.50366e-08
4.02118e-08
4.03745e-08
4.77478e-08
5.84506e-08
6.99646e-08
8.55524e-08
1.15877e-07
1.65812e-07
2.20425e-07
2.05382e-07
1.8261e-07
1.37804e-07
1.11082e-07
9.63679e-08
8.18933e-08
6.8967e-08
5.7774e-08
4.78868e-08
4.24029e-08
4.97753e-08
4.95665e-08
4.46952e-08
4.93884e-08
5.84199e-08
6.96705e-08
8.65789e-08
1.24085e-07
1.94671e-07
2.91526e-07
2.7088e-07
2.9659e-07
2.04891e-07
1.3455e-07
1.06762e-07
8.87423e-08
7.35816e-08
6.03872e-08
4.92767e-08
4.25215e-08
4.76815e-08
5.20924e-08
4.48102e-08
4.6993e-08
5.53653e-08
6.69507e-08
8.29461e-08
1.19293e-07
1.97723e-07
3.40168e-07
3.3415e-07
4.11821e-07
2.88905e-07
1.56991e-07
1.16063e-07
9.8664e-08
8.59936e-08
7.41662e-08
6.28682e-08
5.43842e-08
5.6288e-08
6.32261e-08
6.05944e-08
6.20692e-08
6.58437e-08
7.20647e-08
8.14791e-08
1.06216e-07
1.74145e-07
3.50629e-07
3.97233e-07
5.30032e-07
4.00674e-07
2.02681e-07
1.96624e-07
2.18449e-07
2.39782e-07
2.45956e-07
2.2501e-07
1.77977e-07
1.32639e-07
1.19655e-07
1.48609e-07
1.94652e-07
2.17131e-07
2.04983e-07
1.74564e-07
1.59797e-07
1.96918e-07
3.62535e-07
4.70189e-07
6.66546e-07
6.05096e-07
6.87549e-07
9.80332e-07
1.34107e-06
1.64582e-06
1.81532e-06
1.73384e-06
1.38172e-06
1.01473e-06
8.59776e-07
1.02613e-06
1.30083e-06
1.44112e-06
1.35033e-06
1.07191e-06
7.74238e-07
5.8119e-07
5.1014e-07
5.59121e-07
8.34023e-07
1.09348e-06
1.34382e-06
1.60704e-06
1.8929e-06
2.16951e-06
2.41585e-06
2.60858e-06
2.72684e-06
2.7358e-06
2.43251e-06
2.29111e-06
2.14149e-06
1.96998e-06
1.76374e-06
1.52773e-06
1.28867e-06
1.07643e-06
8.75225e-07
6.66862e-07
8.43097e-09
1.51507e-08
1.93685e-08
2.22274e-08
2.39341e-08
2.42292e-08
2.27814e-08
2.25378e-08
2.81887e-08
2.95142e-08
2.98515e-08
3.10002e-08
3.18028e-08
3.07646e-08
2.9789e-08
2.89992e-08
4.09492e-08
9.70247e-08
1.04952e-07
8.27968e-08
1.51629e-08
3.83344e-08
4.30473e-08
4.08148e-08
3.68349e-08
3.04315e-08
2.49522e-08
2.40354e-08
3.78717e-08
4.06228e-08
3.07268e-08
2.86537e-08
3.19039e-08
3.81778e-08
4.70547e-08
6.48372e-08
7.4282e-08
8.82596e-08
9.1459e-08
8.53939e-08
3.57353e-08
4.89121e-08
5.56762e-08
5.5171e-08
4.93565e-08
4.09387e-08
3.31093e-08
2.92907e-08
3.90305e-08
4.54158e-08
3.60121e-08
3.26511e-08
3.75527e-08
4.71097e-08
5.86377e-08
6.9485e-08
8.05301e-08
9.45274e-08
1.06872e-07
9.90735e-08
6.16263e-08
6.05899e-08
6.43982e-08
6.36515e-08
5.91397e-08
5.24723e-08
4.42795e-08
3.7257e-08
4.08599e-08
6.11962e-08
4.89545e-08
3.83913e-08
4.22855e-08
5.18169e-08
6.25886e-08
7.49704e-08
9.22458e-08
1.19048e-07
1.55924e-07
1.6772e-07
1.54375e-07
1.02464e-07
8.00035e-08
7.18919e-08
6.51373e-08
5.7774e-08
5.01443e-08
4.31579e-08
4.48785e-08
7.89869e-08
7.19292e-08
4.59772e-08
4.59886e-08
5.37965e-08
6.46243e-08
7.9699e-08
1.0507e-07
1.50129e-07
2.23699e-07
2.44358e-07
2.74415e-07
1.64318e-07
1.00884e-07
8.00054e-08
6.92878e-08
6.03872e-08
5.2185e-08
4.55383e-08
4.77952e-08
9.18582e-08
9.26953e-08
5.10648e-08
4.56874e-08
5.19635e-08
6.31366e-08
7.94065e-08
1.08783e-07
1.68995e-07
2.97687e-07
3.1726e-07
3.96892e-07
2.33349e-07
1.22765e-07
9.14297e-08
8.07578e-08
7.41662e-08
6.78399e-08
6.17434e-08
6.3909e-08
1.12931e-07
1.25468e-07
7.42504e-08
6.37392e-08
6.4732e-08
7.05895e-08
8.15076e-08
1.04281e-07
1.61285e-07
3.35155e-07
3.88231e-07
5.25011e-07
3.83158e-07
1.77383e-07
1.83784e-07
2.15481e-07
2.45956e-07
2.55858e-07
2.30864e-07
1.8606e-07
1.895e-07
1.86672e-07
1.59631e-07
1.95349e-07
2.17992e-07
2.08739e-07
1.82734e-07
1.67324e-07
1.92676e-07
3.57639e-07
4.67203e-07
6.73573e-07
6.03948e-07
6.87942e-07
1.05065e-06
1.46791e-06
1.81532e-06
1.96621e-06
1.78813e-06
1.43849e-06
1.37308e-06
1.15855e-06
1.08553e-06
1.33368e-06
1.51348e-06
1.42983e-06
1.14083e-06
8.16223e-07
5.75735e-07
5.02359e-07
5.61246e-07
8.64997e-07
1.14902e-06
1.42785e-06
1.73461e-06
2.0738e-06
2.41585e-06
2.74469e-06
3.05266e-06
3.34416e-06
3.58542e-06
3.16738e-06
2.80237e-06
2.49367e-06
2.21735e-06
1.93948e-06
1.65205e-06
1.3738e-06
1.12959e-06
9.08121e-07
6.84089e-07
8.39285e-09
1.36302e-08
1.72761e-08
1.95218e-08
2.18057e-08
2.25744e-08
2.25378e-08
2.40257e-08
3.19396e-08
3.54556e-08
3.36301e-08
3.27332e-08
3.179e-08
2.9235e-08
2.94732e-08
3.14224e-08
3.25654e-08
3.5149e-08
3.3239e-08
2.11594e-08
1.66599e-08
2.07992e-08
2.68664e-08
2.95254e-08
3.04439e-08
2.7164e-08
2.40354e-08
2.58251e-08
4.52931e-08
6.26502e-08
4.56918e-08
3.64219e-08
3.60185e-08
3.64312e-08
3.75143e-08
4.50061e-08
5.77023e-08
6.33437e-08
5.89402e-08
5.41474e-08
1.80314e-08
3.41374e-08
4.30002e-08
4.42604e-08
4.04235e-08
3.44233e-08
2.92907e-08
2.95725e-08
5.2414e-08
1.28302e-07
1.02825e-07
4.72672e-08
3.83586e-08
4.02044e-08
4.79953e-08
6.03541e-08
6.75527e-08
7.1658e-08
7.72806e-08
7.97545e-08
3.78543e-08
4.11479e-08
4.75584e-08
5.03162e-08
4.86992e-08
4.33741e-08
3.7257e-08
3.60304e-08
6.59422e-08
2.42458e-07
2.05518e-07
6.62747e-08
4.1537e-08
4.45474e-08
5.41351e-08
6.51624e-08
7.63826e-08
9.12177e-08
1.17167e-07
1.4401e-07
1.29752e-07
7.56808e-08
5.77573e-08
5.41735e-08
5.18611e-08
4.78868e-08
4.31579e-08
4.3154e-08
8.96974e-08
4.12931e-07
3.61085e-07
9.54125e-08
4.6851e-08
4.78727e-08
5.72686e-08
7.02166e-08
8.78731e-08
1.16979e-07
1.72963e-07
2.19549e-07
2.51649e-07
1.32638e-07
7.5277e-08
5.92593e-08
5.34842e-08
4.92767e-08
4.55383e-08
4.81468e-08
1.18546e-07
6.18557e-07
5.44111e-07
1.21674e-07
4.9595e-08
4.81139e-08
5.7255e-08
7.16541e-08
9.46618e-08
1.39423e-07
2.44912e-07
2.95459e-07
3.76177e-07
1.92104e-07
9.57381e-08
7.03215e-08
6.45061e-08
6.28682e-08
6.17434e-08
6.7496e-08
1.62601e-07
8.15869e-07
7.38175e-07
1.68182e-07
6.9299e-08
6.20046e-08
6.66514e-08
7.70047e-08
9.68854e-08
1.43693e-07
2.99222e-07
3.69825e-07
5.07175e-07
3.4627e-07
1.49587e-07
1.60656e-07
1.9475e-07
2.2501e-07
2.30864e-07
2.11759e-07
2.72929e-07
1.05694e-06
1.01225e-06
2.30209e-07
1.76991e-07
1.94239e-07
1.92026e-07
1.73971e-07
1.61703e-07
1.75998e-07
3.35741e-07
4.50617e-07
6.62192e-07
5.75434e-07
6.36431e-07
1.01936e-06
1.42736e-06
1.73384e-06
1.78813e-06
1.61773e-06
1.73955e-06
2.60496e-06
2.18172e-06
1.2771e-06
1.22763e-06
1.39057e-06
1.34351e-06
1.08499e-06
7.78584e-07
5.24686e-07
4.69261e-07
5.46291e-07
8.76417e-07
1.174e-06
1.46985e-06
1.80996e-06
2.19617e-06
2.60858e-06
3.05266e-06
3.56423e-06
4.20296e-06
4.93118e-06
4.34487e-06
3.49398e-06
2.88943e-06
2.44734e-06
2.07595e-06
1.73302e-06
1.41922e-06
1.1501e-06
9.17346e-07
6.86035e-07
8.17056e-09
1.2626e-08
1.60004e-08
1.93531e-08
2.36752e-08
2.59752e-08
2.81887e-08
3.19396e-08
3.91452e-08
4.26673e-08
4.35781e-08
4.51664e-08
4.35446e-08
3.86406e-08
3.6056e-08
3.44025e-08
3.38181e-08
3.18147e-08
2.70542e-08
1.93476e-08
1.75614e-08
1.60383e-08
2.07698e-08
2.67588e-08
3.42072e-08
3.62952e-08
3.78717e-08
4.52931e-08
7.35392e-08
3.83476e-07
3.16093e-07
9.63483e-08
6.9795e-08
5.23837e-08
4.46725e-08
4.26532e-08
4.49825e-08
4.95148e-08
4.57854e-08
4.08674e-08
2.21114e-08
2.65385e-08
3.37181e-08
3.74452e-08
3.93035e-08
3.83424e-08
3.90305e-08
5.2414e-08
1.74735e-07
1.40226e-06
1.28808e-06
2.59263e-07
7.58773e-08
4.84291e-08
4.3753e-08
4.92781e-08
5.83904e-08
5.97137e-08
6.06711e-08
6.40382e-08
2.41457e-08
3.06583e-08
3.73352e-08
4.17654e-08
4.30088e-08
4.06294e-08
4.08599e-08
6.59422e-08
3.39056e-07
2.73887e-06
2.52596e-06
4.80205e-07
9.03085e-08
4.65637e-08
4.62159e-08
5.46194e-08
6.33565e-08
7.27747e-08
9.19683e-08
1.22897e-07
1.06838e-07
5.79088e-08
4.24815e-08
4.1765e-08
4.30386e-08
4.24029e-08
4.48785e-08
8.96974e-08
6.06429e-07
4.4221e-06
3.93572e-06
7.52063e-07
1.07247e-07
4.78807e-08
4.88454e-08
5.84598e-08
7.14579e-08
9.1957e-08
1.37173e-07
1.95495e-07
2.28704e-07
1.11389e-07
5.75725e-08
4.41413e-08
4.23331e-08
4.25215e-08
4.77952e-08
1.18546e-07
9.63337e-07
6.21837e-06
5.20475e-06
1.01665e-06
1.19109e-07
4.88419e-08
5.00119e-08
6.07692e-08
7.83541e-08
1.12677e-07
2.00798e-07
2.70716e-07
3.5071e-07
1.63427e-07
7.63746e-08
5.37438e-08
5.15149e-08
5.43842e-08
6.3909e-08
1.62601e-07
1.32741e-06
7.64343e-06
6.0348e-06
1.22253e-06
1.40986e-07
6.26056e-08
6.06001e-08
6.84036e-08
8.45856e-08
1.23467e-07
2.57232e-07
3.44547e-07
4.78179e-07
2.96705e-07
1.22874e-07
1.29596e-07
1.5695e-07
1.77977e-07
1.8606e-07
2.72929e-07
1.53537e-06
7.72754e-06
5.92551e-06
1.16501e-06
2.00891e-07
1.5729e-07
1.5856e-07
1.5001e-07
1.42446e-07
1.50678e-07
3.04529e-07
4.22691e-07
6.3128e-07
5.16547e-07
5.3289e-07
8.79672e-07
1.19532e-06
1.38172e-06
1.43849e-06
1.73955e-06
3.06198e-06
6.18523e-06
5.08091e-06
2.15174e-06
1.23825e-06
1.13171e-06
1.10369e-06
9.2329e-07
6.73263e-07
4.38323e-07
4.10927e-07
5.14862e-07
8.62653e-07
1.15753e-06
1.452e-06
1.81154e-06
2.23492e-06
2.72684e-06
3.34416e-06
4.20296e-06
5.43131e-06
6.81059e-06
6.08196e-06
4.43627e-06
3.33959e-06
2.64513e-06
2.15535e-06
1.75651e-06
1.41398e-06
1.12916e-06
8.97949e-07
6.70082e-07
7.75381e-09
1.16153e-08
1.45617e-08
1.87974e-08
2.36493e-08
2.62773e-08
2.95142e-08
3.54556e-08
4.26673e-08
2.90079e-08
3.51505e-08
6.50703e-08
5.94591e-08
5.3944e-08
4.99874e-08
4.56041e-08
3.98431e-08
3.31327e-08
2.4274e-08
1.66317e-08
1.55006e-08
1.51488e-08
1.96921e-08
2.57065e-08
3.16934e-08
3.4211e-08
4.06228e-08
6.26502e-08
3.83476e-07
5.38272e-07
5.56754e-07
3.97049e-07
7.50486e-08
6.10123e-08
5.6509e-08
5.45337e-08
5.28828e-08
4.57729e-08
3.719e-08
3.37117e-08
2.07669e-08
2.12201e-08
2.64611e-08
3.19061e-08
3.60055e-08
3.73398e-08
4.54158e-08
1.28302e-07
1.40226e-06
1.1867e-06
1.14291e-06
1.26756e-06
1.05255e-07
5.50311e-08
5.03377e-08
4.92684e-08
5.05777e-08
5.20831e-08
5.04552e-08
5.29014e-08
2.03806e-08
2.66264e-08
3.18868e-08
3.94902e-08
4.3476e-08
4.50366e-08
6.11962e-08
2.42458e-07
2.73887e-06
1.98289e-06
1.83037e-06
2.2866e-06
1.57418e-07
5.22298e-08
4.52353e-08
4.72489e-08
5.28759e-08
6.02659e-08
7.84321e-08
1.147e-07
9.56026e-08
5.18354e-08
3.55696e-08
3.71477e-08
4.41142e-08
4.97753e-08
7.89869e-08
4.12931e-07
4.4221e-06
2.90212e-06
2.62821e-06
3.44173e-06
2.29043e-07
5.4074e-08
4.45625e-08
4.83671e-08
5.78172e-08
7.56742e-08
1.20192e-07
1.85688e-07
2.09381e-07
1.02733e-07
4.99973e-08
3.68415e-08
3.95974e-08
4.76815e-08
9.18582e-08
6.18557e-07
6.21837e-06
3.84549e-06
3.5056e-06
4.53629e-06
3.13575e-07
5.9135e-08
4.57965e-08
5.05945e-08
6.39232e-08
9.40631e-08
1.77625e-07
2.54273e-07
3.21481e-07
1.49921e-07
6.73585e-08
4.43973e-08
4.55987e-08
5.6288e-08
1.12931e-07
8.15869e-07
7.64343e-06
4.6211e-06
4.3395e-06
5.14545e-06
4.09997e-07
7.72476e-08
5.71527e-08
5.92165e-08
7.14556e-08
1.06313e-07
2.29751e-07
3.20608e-07
4.36093e-07
2.53253e-07
1.03315e-07
9.89425e-08
1.16421e-07
1.32639e-07
1.895e-07
1.05694e-06
7.72754e-06
4.98939e-06
4.87846e-06
4.7282e-06
4.36401e-07
1.41704e-07
1.28101e-07
1.23079e-07
1.18673e-07
1.26298e-07
2.78129e-07
3.9035e-07
5.72132e-07
4.23078e-07
4.04681e-07
6.71215e-07
8.72347e-07
1.01473e-06
1.37308e-06
2.60496e-06
6.18523e-06
5.25597e-06
5.12548e-06
4.08149e-06
1.68044e-06
9.75938e-07
8.59747e-07
7.37105e-07
5.46294e-07
3.48947e-07
3.46883e-07
4.72852e-07
8.04762e-07
1.07865e-06
1.34853e-06
1.71008e-06
2.15763e-06
2.7358e-06
3.58542e-06
4.93118e-06
6.81059e-06
6.44109e-06
6.41677e-06
5.3878e-06
3.7931e-06
2.784e-06
2.1635e-06
1.7137e-06
1.35182e-06
1.0624e-06
8.45709e-07
6.31489e-07
7.43604e-09
1.11813e-08
1.46727e-08
2.10587e-08
2.64663e-08
2.86524e-08
2.98515e-08
3.36301e-08
4.35781e-08
3.51505e-08
5.24699e-08
1.05337e-07
9.55921e-08
8.97242e-08
8.44469e-08
7.70279e-08
6.49646e-08
4.71088e-08
2.77562e-08
1.68826e-08
1.35066e-08
1.55693e-08
2.17583e-08
2.77469e-08
3.08012e-08
3.03309e-08
3.07268e-08
4.56918e-08
3.16093e-07
5.56754e-07
4.94782e-07
1.82309e-07
7.72847e-08
7.43603e-08
7.34282e-08
7.25738e-08
6.9454e-08
6.36657e-08
3.46224e-08
2.83864e-08
1.65739e-08
1.95162e-08
2.62506e-08
3.25936e-08
3.48681e-08
3.37762e-08
3.60121e-08
1.02825e-07
1.28808e-06
1.14291e-06
1.11307e-06
5.44891e-07
7.62544e-08
6.28702e-08
6.13287e-08
5.88072e-08
5.27775e-08
4.5598e-08
4.4263e-08
5.08132e-08
2.10355e-08
2.40158e-08
3.29655e-08
3.94345e-08
4.06112e-08
4.02118e-08
4.89545e-08
2.05518e-07
2.52596e-06
1.83037e-06
2.0506e-06
9.42798e-07
8.48147e-08
5.38639e-08
5.01106e-08
4.70606e-08
4.74304e-08
5.41132e-08
7.48953e-08
1.19864e-07
1.0974e-07
5.56521e-08
3.72956e-08
4.08424e-08
4.63734e-08
4.95665e-08
7.19292e-08
3.61085e-07
3.93572e-06
2.62821e-06
3.38234e-06
1.37917e-06
1.01331e-07
4.93078e-08
4.49332e-08
4.41452e-08
5.03048e-08
6.84168e-08
1.17707e-07
1.91684e-07
2.18459e-07
1.0758e-07
5.18118e-08
3.78949e-08
4.19143e-08
5.20924e-08
9.26953e-08
5.44111e-07
5.20475e-06
3.5056e-06
5.01854e-06
1.80765e-06
1.24944e-07
4.94378e-08
4.44323e-08
4.53646e-08
5.54861e-08
8.5277e-08
1.7325e-07
2.5927e-07
3.2355e-07
1.53476e-07
6.80875e-08
4.34223e-08
4.6756e-08
6.32261e-08
1.25468e-07
7.38175e-07
6.0348e-06
4.3395e-06
6.64213e-06
2.09394e-06
1.66776e-07
6.45656e-08
5.63981e-08
5.47788e-08
6.2936e-08
9.6094e-08
2.21595e-07
3.24979e-07
4.294e-07
2.55477e-07
9.81762e-08
8.80746e-08
1.01511e-07
1.19655e-07
1.86672e-07
1.01225e-06
5.92551e-06
4.87846e-06
7.81052e-06
1.9089e-06
2.35673e-07
1.49174e-07
1.34488e-07
1.18559e-07
1.09339e-07
1.14945e-07
2.6766e-07
3.94851e-07
5.53464e-07
4.09389e-07
3.68566e-07
5.90127e-07
7.44774e-07
8.59776e-07
1.15855e-06
2.18172e-06
5.08091e-06
5.12548e-06
7.56221e-06
3.00125e-06
1.42007e-06
1.0388e-06
9.15001e-07
7.41838e-07
5.40921e-07
3.43086e-07
3.54866e-07
4.82337e-07
7.65337e-07
1.01069e-06
1.2472e-06
1.55448e-06
1.93573e-06
2.43251e-06
3.16738e-06
4.34487e-06
6.08196e-06
6.41677e-06
7.91636e-06
5.37218e-06
3.77533e-06
2.8344e-06
2.2161e-06
1.75219e-06
1.38261e-06
1.09169e-06
8.69181e-07
6.50087e-07
7.10899e-09
1.19376e-08
1.77581e-08
2.4348e-08
3.00003e-08
3.16365e-08
3.10002e-08
3.27332e-08
4.51664e-08
6.50703e-08
1.05337e-07
1.15816e-07
1.21878e-07
1.25689e-07
1.27339e-07
1.25225e-07
1.17297e-07
1.01227e-07
7.38019e-08
3.68436e-08
1.13213e-08
1.87054e-08
2.67041e-08
3.20383e-08
3.41226e-08
3.17771e-08
2.86537e-08
3.64219e-08
9.63483e-08
3.97049e-07
1.82309e-07
8.98291e-08
9.47546e-08
9.65156e-08
9.8473e-08
9.92297e-08
9.62884e-08
8.63626e-08
6.49739e-08
2.97128e-08
1.24321e-08
2.29154e-08
3.18266e-08
3.77383e-08
3.93661e-08
3.61928e-08
3.26511e-08
4.72672e-08
2.59263e-07
1.26756e-06
5.44891e-07
8.88156e-08
7.52474e-08
7.59365e-08
7.65601e-08
7.58537e-08
7.08018e-08
5.81163e-08
4.73762e-08
5.94831e-08
2.69084e-08
2.62469e-08
3.76665e-08
4.22881e-08
4.30078e-08
4.03745e-08
3.83913e-08
6.62747e-08
4.80205e-07
2.2866e-06
9.42798e-07
1.01947e-07
6.26419e-08
6.2004e-08
6.09395e-08
5.7533e-08
5.2492e-08
5.5339e-08
7.91505e-08
1.32049e-07
1.25946e-07
6.30302e-08
4.51704e-08
4.65383e-08
4.62971e-08
4.46952e-08
4.59772e-08
9.54125e-08
7.52063e-07
3.44173e-06
1.37917e-06
1.26113e-07
5.52552e-08
5.32301e-08
5.17365e-08
4.90668e-08
5.06509e-08
6.87939e-08
1.23097e-07
2.04055e-07
2.32835e-07
1.16201e-07
5.86408e-08
4.48081e-08
4.33557e-08
4.48102e-08
5.10648e-08
1.21674e-07
1.01665e-06
4.53629e-06
1.80765e-06
1.59709e-07
5.28219e-08
4.90933e-08
4.8024e-08
4.72064e-08
5.38859e-08
8.40052e-08
1.78157e-07
2.71676e-07
3.36143e-07
1.6231e-07
7.37439e-08
4.97224e-08
5.15672e-08
6.05944e-08
7.42504e-08
1.68182e-07
1.22253e-06
5.14545e-06
2.09394e-06
2.11518e-07
6.5759e-08
5.89237e-08
5.7332e-08
5.5674e-08
6.0717e-08
9.19559e-08
2.24494e-07
3.38306e-07
4.41266e-07
2.78705e-07
1.05351e-07
1.03919e-07
1.26477e-07
1.48609e-07
1.59631e-07
2.30209e-07
1.16501e-06
4.7282e-06
1.9089e-06
2.91399e-07
1.86748e-07
1.82272e-07
1.64331e-07
1.38837e-07
1.18678e-07
1.17562e-07
2.7006e-07
4.10489e-07
5.66305e-07
4.45342e-07
4.30198e-07
6.91567e-07
9.02829e-07
1.02613e-06
1.08553e-06
1.2771e-06
2.15174e-06
4.08149e-06
3.00125e-06
1.48087e-06
1.36094e-06
1.34449e-06
1.14272e-06
8.85448e-07
6.33257e-07
4.01707e-07
3.93793e-07
5.06293e-07
7.69249e-07
1.01492e-06
1.25508e-06
1.54382e-06
1.88647e-06
2.29111e-06
2.80237e-06
3.49398e-06
4.43627e-06
5.3878e-06
5.37218e-06
4.1706e-06
3.31617e-06
2.68352e-06
2.17782e-06
1.76004e-06
1.41225e-06
1.13077e-06
9.00097e-07
6.74023e-07
7.48835e-09
1.54945e-08
2.19922e-08
2.78912e-08
3.42985e-08
3.42037e-08
3.18028e-08
3.179e-08
4.35446e-08
5.94591e-08
9.55921e-08
1.21878e-07
1.39634e-07
1.52113e-07
1.60497e-07
1.64404e-07
1.62794e-07
1.54351e-07
1.38498e-07
1.17644e-07
1.10478e-08
2.66799e-08
3.59245e-08
4.21724e-08
4.37559e-08
3.80609e-08
3.19039e-08
3.60185e-08
6.9795e-08
7.50486e-08
7.72847e-08
9.47546e-08
1.07715e-07
1.15075e-07
1.20657e-07
1.25386e-07
1.27282e-07
1.22102e-07
1.03725e-07
5.7733e-08
1.4746e-08
3.23132e-08
4.21143e-08
4.83366e-08
4.99078e-08
4.46335e-08
3.75527e-08
3.83586e-08
7.58773e-08
1.05255e-07
7.62544e-08
7.52474e-08
8.26512e-08
8.58851e-08
8.78004e-08
8.9175e-08
8.81095e-08
8.19265e-08
7.16596e-08
7.40385e-08
3.6329e-08
3.86057e-08
4.56954e-08
4.9954e-08
5.13281e-08