/*--------------------------------*- C++ -*----------------------------------*\
  =========                 |
  \\      /  F ield         | OpenFOAM: The Open Source CFD Toolbox
   \\    /   O peration     | Website:  https://openfoam.org
    \\  /    A nd           | Version:  8
     \\/     M anipulation  |
\*---------------------------------------------------------------------------*/
FoamFile
{
    version     2.0;
    format      ascii;
    class       volScalarField;
    location    "1800";
    object      k;
}
// * * * * * * * * * * * * * * * * * * * * * * * * * * * * * * * * * * * * * //

dimensions      [0 2 -2 0 0 0 0];

internalField   nonuniform List<scalar> 
4000
(
3.06339e-05
2.89287e-05
2.64696e-05
2.40017e-05
2.04905e-05
9.79804e-06
3.02321e-06
3.01199e-06
2.9585e-06
2.8561e-06
2.77739e-06
2.6955e-06
2.7873e-06
4.10096e-06
1.46457e-05
2.04814e-05
2.2808e-05
2.4525e-05
2.67448e-05
2.88085e-05
3.30684e-05
3.08567e-05
2.65156e-05
2.14915e-05
1.81684e-05
1.08728e-05
4.48131e-06
4.75594e-06
4.92749e-06
4.53348e-06
4.13593e-06
3.67807e-06
3.61109e-06
5.99209e-06
1.25099e-05
1.62865e-05
1.85914e-05
2.27094e-05
2.77379e-05
3.11147e-05
3.4523e-05
3.27074e-05
2.78958e-05
2.01747e-05
1.62744e-05
1.1594e-05
7.92331e-06
5.01979e-06
5.74103e-06
5.50936e-06
4.74102e-06
3.91411e-06
4.38126e-06
7.04459e-06
1.01653e-05
1.26326e-05
1.4059e-05
2.27894e-05
2.92128e-05
3.24593e-05
3.53496e-05
3.42589e-05
3.02903e-05
2.45184e-05
1.70808e-05
1.3997e-05
1.14031e-05
8.24265e-06
6.10036e-06
5.44301e-06
5.57212e-06
6.57377e-06
8.02309e-06
1.07955e-05
1.41441e-05
1.61349e-05
2.06127e-05
2.60343e-05
3.08797e-05
3.31849e-05
3.59957e-05
3.58438e-05
3.35715e-05
3.00756e-05
2.63422e-05
2.35131e-05
2.1026e-05
1.8728e-05
1.64596e-05
1.52861e-05
1.67563e-05
1.83658e-05
1.99022e-05
2.14921e-05
2.32883e-05
2.51943e-05
2.76352e-05
3.05336e-05
3.30285e-05
3.38007e-05
3.66681e-05
3.76508e-05
3.71047e-05
3.57554e-05
3.40954e-05
3.24822e-05
3.08431e-05
2.91127e-05
2.73156e-05
2.57552e-05
2.64939e-05
2.7644e-05
2.88454e-05
3.00408e-05
3.12075e-05
3.23065e-05
3.34144e-05
3.44854e-05
3.50921e-05
3.43911e-05
3.74535e-05
3.96119e-05
4.06386e-05
4.10076e-05
4.09418e-05
4.04236e-05
3.9441e-05
3.80562e-05
3.6318e-05
3.42687e-05
3.44128e-05
3.53008e-05
3.63205e-05
3.72564e-05
3.79668e-05
3.83293e-05
3.83304e-05
3.79725e-05
3.70539e-05
3.49958e-05
3.84544e-05
4.18892e-05
4.43647e-05
4.61502e-05
4.73417e-05
4.78267e-05
4.75237e-05
4.64409e-05
4.46516e-05
4.19861e-05
4.15502e-05
4.23141e-05
4.32648e-05
4.40114e-05
4.43004e-05
4.39383e-05
4.29342e-05
4.13721e-05
3.91221e-05
3.57517e-05
3.98842e-05
4.49039e-05
4.89334e-05
5.20279e-05
5.43185e-05
5.5719e-05
5.61087e-05
5.54734e-05
5.37298e-05
5.03104e-05
4.92012e-05
4.99629e-05
5.08715e-05
5.14274e-05
5.12529e-05
5.00835e-05
4.80634e-05
4.53479e-05
4.17556e-05
3.68799e-05
4.20557e-05
4.87722e-05
5.44274e-05
5.87556e-05
6.21652e-05
6.46916e-05
6.62798e-05
6.68573e-05
6.61492e-05
6.3146e-05
6.10547e-05
6.12692e-05
6.12588e-05
6.06848e-05
5.93821e-05
5.72449e-05
5.42596e-05
5.03879e-05
4.52215e-05
3.86818e-05
2.89287e-05
2.96996e-05
2.79615e-05
2.49358e-05
2.10387e-05
1.18034e-05
4.46657e-06
4.16319e-06
3.95446e-06
3.73834e-06
3.64357e-06
3.80383e-06
4.52295e-06
7.32778e-06
1.73773e-05
2.19318e-05
2.45359e-05
2.66951e-05
2.89323e-05
2.88573e-05
3.08567e-05
3.57244e-05
3.36036e-05
2.69155e-05
2.15358e-05
1.4126e-05
9.75283e-06
7.94119e-06
7.52187e-06
6.96469e-06
6.54963e-06
6.8488e-06
7.88987e-06
1.05738e-05
1.64309e-05
2.06538e-05
2.31919e-05
2.79297e-05
3.43131e-05
3.13116e-05
3.27074e-05
3.97168e-05
4.00028e-05
3.2575e-05
2.27391e-05
1.58975e-05
1.1837e-05
1.02826e-05
1.02369e-05
9.29741e-06
8.19503e-06
8.16907e-06
9.35911e-06
1.16765e-05
1.46158e-05
1.62816e-05
1.93641e-05
3.06193e-05
3.8824e-05
3.291e-05
3.42589e-05
4.24203e-05
4.39116e-05
3.68017e-05
2.43743e-05
1.77192e-05
1.35466e-05
1.07613e-05
9.95301e-06
1.02218e-05
9.21846e-06
8.68008e-06
1.02713e-05
1.24399e-05
1.54194e-05
1.69022e-05
2.19584e-05
3.55478e-05
4.24856e-05
3.38779e-05
3.58438e-05
4.45471e-05
4.65402e-05
4.10543e-05
2.98207e-05
2.29977e-05
1.82951e-05
1.47085e-05
1.26871e-05
1.23596e-05
1.25178e-05
1.29532e-05
1.45304e-05
1.70338e-05
2.00894e-05
2.31065e-05
3.01798e-05
3.98679e-05
4.39465e-05
3.46685e-05
3.76508e-05
4.58855e-05
4.78646e-05
4.52275e-05
3.7826e-05
3.00587e-05
2.49297e-05
2.09792e-05
1.85629e-05
1.77885e-05
1.82203e-05
1.90235e-05
2.05132e-05
2.27771e-05
2.60616e-05
3.09335e-05
3.69349e-05
4.24589e-05
4.34923e-05
3.55331e-05
3.96119e-05
4.67274e-05
4.8169e-05
4.78834e-05
4.61561e-05
4.10391e-05
3.39475e-05
2.87287e-05
2.52603e-05
2.37539e-05
2.41576e-05
2.52176e-05
2.69941e-05
3.0437e-05
3.47054e-05
3.85008e-05
4.12832e-05
4.28202e-05
4.25308e-05
3.66981e-05
4.18892e-05
4.81841e-05
4.96852e-05
5.14998e-05
5.35562e-05
5.36446e-05
5.16108e-05
4.75025e-05
4.22548e-05
3.79796e-05
3.79972e-05
4.0155e-05
4.28779e-05
4.49294e-05
4.61549e-05
4.62243e-05
4.50612e-05
4.37461e-05
4.314e-05
3.82694e-05
4.49039e-05
5.24003e-05
5.65617e-05
6.02988e-05
6.33981e-05
6.5064e-05
6.43647e-05
6.13018e-05
5.59247e-05
4.80221e-05
4.65901e-05
4.96979e-05
5.35769e-05
5.6837e-05
5.79845e-05
5.61023e-05
5.28969e-05
4.98079e-05
4.71681e-05
4.0538e-05
4.87722e-05
5.65853e-05
6.33794e-05
6.89418e-05
7.36804e-05
7.74873e-05
8.00841e-05
8.12339e-05
8.04634e-05
7.67534e-05
7.34783e-05
7.36942e-05
7.34871e-05
7.24107e-05
7.02282e-05
6.68601e-05
6.25308e-05
5.74242e-05
5.11626e-05
4.36662e-05
2.64696e-05
2.79615e-05
2.65416e-05
2.38982e-05
1.99749e-05
1.03824e-05
5.26183e-06
4.87752e-06
4.63156e-06
4.3445e-06
4.36441e-06
4.9531e-06
5.71864e-06
1.01028e-05
1.84211e-05
2.24174e-05
2.50065e-05
2.71475e-05
2.895e-05
2.79255e-05
2.65156e-05
3.36036e-05
3.24294e-05
2.64019e-05
2.09795e-05
1.42908e-05
1.11634e-05
9.69223e-06
9.16995e-06
8.36754e-06
8.20747e-06
8.65707e-06
9.61293e-06
1.23622e-05
1.80184e-05
2.2106e-05
2.51112e-05
2.98368e-05
3.50556e-05
2.99011e-05
2.78958e-05
4.00028e-05
4.25782e-05
3.44716e-05
2.4018e-05
1.72228e-05
1.39184e-05
1.29985e-05
1.27258e-05
1.11013e-05
1.00414e-05
1.03894e-05
1.16126e-05
1.37174e-05
1.64149e-05
1.92207e-05
2.41828e-05
3.40403e-05
4.0742e-05
3.16262e-05
3.02903e-05
4.39116e-05
4.61876e-05
3.92258e-05
2.72483e-05
1.97631e-05
1.5604e-05
1.33679e-05
1.28614e-05
1.2691e-05
1.24168e-05
1.20902e-05
1.27792e-05
1.4193e-05
1.61906e-05
1.79276e-05
2.4492e-05
3.92398e-05
4.53698e-05
3.29974e-05
3.35715e-05
4.65402e-05
4.75577e-05
4.15631e-05
3.00666e-05
2.2387e-05
1.7559e-05
1.41997e-05
1.24985e-05
1.22055e-05
1.22301e-05
1.25485e-05
1.39595e-05
1.55597e-05
1.74154e-05
1.93432e-05
2.70672e-05
4.23351e-05
4.75359e-05
3.43545e-05
3.71047e-05
4.78646e-05
4.76845e-05
4.25647e-05
3.30005e-05
2.5265e-05
1.99949e-05
1.60421e-05
1.36828e-05
1.30425e-05
1.31549e-05
1.36668e-05
1.51263e-05
1.70747e-05
1.93508e-05
2.23045e-05
2.96614e-05
4.20112e-05
4.72534e-05
3.5959e-05
4.06386e-05
4.8169e-05
4.67398e-05
4.16993e-05
3.53599e-05
2.91577e-05
2.36187e-05
1.92806e-05
1.64123e-05
1.53065e-05
1.53341e-05
1.59524e-05
1.74876e-05
1.97877e-05
2.22202e-05
2.49607e-05
3.03172e-05
3.93045e-05
4.5673e-05
3.78991e-05
4.43647e-05
4.96852e-05
4.90936e-05
4.47918e-05
4.09146e-05
3.74913e-05
3.3117e-05
2.84857e-05
2.43341e-05
2.14989e-05
2.07145e-05
2.18016e-05
2.4236e-05
2.72206e-05
2.93966e-05
3.05694e-05
3.36859e-05
4.03499e-05
4.5256e-05
4.04123e-05
4.89334e-05
5.65617e-05
6.52499e-05
7.43825e-05
7.99782e-05
8.26431e-05
8.08633e-05
7.46251e-05
6.42554e-05
5.21145e-05
4.88721e-05
5.51958e-05
6.41635e-05
7.1838e-05
7.4288e-05
6.9459e-05
6.33314e-05
5.64006e-05
5.09969e-05
4.38086e-05
5.44274e-05
6.33794e-05
7.11783e-05
7.78417e-05
8.38176e-05
8.88954e-05
9.25569e-05
9.43547e-05
9.35789e-05
8.90639e-05
8.45239e-05
8.48952e-05
8.45568e-05
8.29889e-05
7.9879e-05
7.52166e-05
6.96086e-05
6.34866e-05
5.64062e-05
4.8094e-05
2.40017e-05
2.49358e-05
2.38982e-05
2.14795e-05
1.74228e-05
7.41718e-06
5.76927e-06
5.29448e-06
5.25764e-06
5.14806e-06
5.55335e-06
6.11879e-06
6.70129e-06
1.18457e-05
1.82074e-05
2.17849e-05
2.42698e-05
2.61673e-05
2.75109e-05
2.61886e-05
2.14915e-05
2.69155e-05
2.64019e-05
2.26568e-05
1.8136e-05
1.35071e-05
1.11854e-05
1.05686e-05
1.09276e-05
9.99973e-06
9.63324e-06
9.67979e-06
1.0589e-05
1.32103e-05
1.81009e-05
2.19499e-05
2.50656e-05
2.91096e-05
3.29191e-05
2.71243e-05
2.01747e-05
3.2575e-05
3.44716e-05
2.79502e-05
2.0808e-05
1.64564e-05
1.44552e-05
1.39327e-05
1.41801e-05
1.25934e-05
1.16363e-05
1.17022e-05
1.28136e-05
1.45418e-05
1.72579e-05
2.09682e-05
2.67309e-05
3.49354e-05
3.9884e-05
2.89141e-05
2.45184e-05
3.68017e-05
3.92258e-05
3.32045e-05
2.46562e-05
1.93106e-05
1.63707e-05
1.4891e-05
1.47956e-05
1.51343e-05
1.40494e-05
1.3412e-05
1.40484e-05
1.53927e-05
1.70861e-05
2.01416e-05
2.7752e-05
4.01547e-05
4.58999e-05
3.10143e-05
3.00756e-05
4.10543e-05
4.15631e-05
3.62937e-05
2.77564e-05
2.1701e-05
1.77802e-05
1.51077e-05
1.39379e-05
1.42454e-05
1.46924e-05
1.43831e-05
1.48136e-05
1.59052e-05
1.73505e-05
1.96987e-05
2.78834e-05
4.26284e-05
4.96821e-05
3.34778e-05
3.57554e-05
4.52275e-05
4.25647e-05
3.72465e-05
2.96964e-05
2.3523e-05
1.89737e-05
1.54816e-05
1.34028e-05
1.30011e-05
1.31842e-05
1.3439e-05
1.45461e-05
1.6019e-05
1.76549e-05
1.97384e-05
2.7139e-05
4.17729e-05
5.07594e-05
3.6042e-05
4.10076e-05
4.78834e-05
4.16993e-05
3.64274e-05
3.08644e-05
2.57958e-05
2.13413e-05
1.75291e-05
1.48249e-05
1.37219e-05
1.36478e-05
1.42459e-05
1.60009e-05
1.77695e-05
1.90459e-05
2.03825e-05
2.59268e-05
3.78157e-05
4.93273e-05
3.88224e-05
4.61502e-05
5.14998e-05
4.47918e-05
4.12172e-05
3.96803e-05
3.7753e-05
3.46869e-05
3.05158e-05
2.57492e-05
2.15131e-05
2.01071e-05
2.23685e-05
2.69563e-05
3.10413e-05
3.16831e-05
2.94751e-05
3.08328e-05
3.87692e-05
4.79827e-05
4.21867e-05
5.20279e-05
6.02988e-05
7.43825e-05
8.65225e-05
9.67663e-05
0.000105426
0.000108259
0.000103546
9.09766e-05
7.34723e-05
6.7216e-05
7.68271e-05
9.00681e-05
9.88099e-05
9.77884e-05
8.48617e-05
7.29353e-05
6.49745e-05
5.4934e-05
4.64609e-05
5.87556e-05
6.89418e-05
7.78417e-05
8.57469e-05
9.33655e-05
0.000100143
0.000105365
0.000108383
0.000108431
0.000104326
9.7879e-05
9.74517e-05
9.63116e-05
9.36969e-05
8.922e-05
8.28633e-05
7.5693e-05
6.85513e-05
6.06197e-05
5.14275e-05
2.04905e-05
2.10387e-05
1.99749e-05
1.74228e-05
1.33235e-05
6.36998e-06
6.0605e-06
5.70076e-06
6.0149e-06
5.99808e-06
6.46918e-06
7.0364e-06
7.69428e-06
1.16139e-05
1.63044e-05
1.9764e-05
2.23185e-05
2.40537e-05
2.49079e-05
2.38154e-05
1.81684e-05
2.15358e-05
2.09795e-05
1.8136e-05
1.46592e-05
1.24912e-05
1.07663e-05
1.09419e-05
1.29329e-05
1.16692e-05
1.05147e-05
1.02661e-05
1.10423e-05
1.30713e-05
1.67249e-05
2.02329e-05
2.32276e-05
2.59559e-05
2.82142e-05
2.31837e-05
1.62744e-05
2.27391e-05
2.4018e-05
2.0808e-05
1.73231e-05
1.52233e-05
1.38975e-05
1.36459e-05
1.50713e-05
1.38397e-05
1.24111e-05
1.22702e-05
1.33236e-05
1.48184e-05
1.702e-05
2.04347e-05
2.58117e-05
3.25992e-05
3.66828e-05
2.51492e-05
1.70808e-05
2.43743e-05
2.72483e-05
2.46562e-05
2.06162e-05
1.78752e-05
1.62316e-05
1.53113e-05
1.57724e-05
1.64402e-05
1.46144e-05
1.38896e-05
1.4632e-05
1.59311e-05
1.75527e-05
2.09341e-05
2.81713e-05
3.83669e-05
4.3908e-05
2.8519e-05
2.63422e-05
2.98207e-05
3.00666e-05
2.77564e-05
2.35522e-05
2.00983e-05
1.75323e-05
1.56821e-05
1.5215e-05
1.67031e-05
1.65717e-05
1.51722e-05
1.54324e-05
1.65595e-05
1.79932e-05
2.09327e-05
2.88238e-05
4.14848e-05
4.98582e-05
3.22433e-05
3.40954e-05
3.7826e-05
3.30005e-05
2.96964e-05
2.55823e-05
2.17193e-05
1.84164e-05
1.57482e-05
1.43888e-05
1.50426e-05
1.55805e-05
1.46616e-05
1.50849e-05
1.64516e-05
1.80636e-05
2.03735e-05
2.73924e-05
4.09022e-05
5.34897e-05
3.58068e-05
4.09418e-05
4.61561e-05
3.53599e-05
3.08644e-05
2.75009e-05
2.41949e-05
2.09086e-05
1.78656e-05
1.57535e-05
1.54804e-05
1.61e-05
1.62254e-05
1.72479e-05
1.83633e-05
1.93121e-05
2.04344e-05
2.5262e-05
3.74997e-05
5.3488e-05
3.93708e-05
4.73417e-05
5.35562e-05
4.09146e-05
3.96803e-05
4.02335e-05
4.00094e-05
3.81866e-05
3.44257e-05
2.90833e-05
2.39934e-05
2.24354e-05
2.57545e-05
3.17481e-05
3.54398e-05
3.48863e-05
3.15581e-05
3.17419e-05
3.90946e-05
5.11906e-05
4.34834e-05
5.43185e-05
6.33981e-05
7.99782e-05
9.67663e-05
0.000115578
0.000129961
0.000135995
0.000130206
0.000111298
8.58767e-05
7.70843e-05
9.15483e-05
0.000110568
0.000121242
0.000117679
9.9731e-05
8.17893e-05
7.15854e-05
5.83577e-05
4.84247e-05
6.21652e-05
7.36804e-05
8.38176e-05
9.33655e-05
0.000103019
0.000111677
0.000118669
0.000123278
0.000124707
0.000121796
0.000113283
0.000111378
0.000108704
0.000104503
9.83426e-05
9.0281e-05
8.14086e-05
7.30044e-05
6.4114e-05
5.39625e-05
9.79804e-06
1.18034e-05
1.03824e-05
7.41718e-06
6.36998e-06
6.37948e-06
6.10986e-06
5.83371e-06
6.40125e-06
6.43623e-06
6.82168e-06
7.29231e-06
7.68593e-06
8.33414e-06
8.92546e-06
1.46367e-05
1.86191e-05
2.08866e-05
2.16716e-05
2.09348e-05
1.08728e-05
1.4126e-05
1.42908e-05
1.35071e-05
1.24912e-05
1.10081e-05
9.98789e-06
1.04184e-05
1.36079e-05
1.25346e-05
1.07689e-05
1.03068e-05
1.07779e-05
1.18837e-05
1.37637e-05
1.63546e-05
1.96632e-05
2.17122e-05
2.2105e-05
1.87697e-05
1.1594e-05
1.58975e-05
1.72228e-05
1.64564e-05
1.52233e-05
1.39996e-05
1.28443e-05
1.27462e-05
1.51061e-05
1.43701e-05
1.25085e-05
1.21142e-05
1.30148e-05
1.44825e-05
1.59015e-05
1.7939e-05
2.14826e-05
2.55911e-05
2.7349e-05
1.9752e-05
1.3997e-05
1.77192e-05
1.97631e-05
1.93106e-05
1.78752e-05
1.66568e-05
1.56157e-05
1.47848e-05
1.56462e-05
1.68471e-05
1.47768e-05
1.37893e-05
1.44973e-05
1.58383e-05
1.7291e-05
1.97072e-05
2.44999e-05
3.11996e-05
3.53521e-05
2.53635e-05
2.35131e-05
2.29977e-05
2.2387e-05
2.1701e-05
2.00983e-05
1.83962e-05
1.68444e-05
1.56028e-05
1.56809e-05
1.80974e-05
1.75062e-05
1.53937e-05
1.55373e-05
1.66883e-05
1.82386e-05
2.09651e-05
2.69361e-05
3.64459e-05
4.49752e-05
3.05268e-05
3.24822e-05
3.00587e-05
2.5265e-05
2.3523e-05
2.17193e-05
1.96315e-05
1.75306e-05
1.577e-05
1.52481e-05
1.72757e-05
1.82745e-05
1.58747e-05
1.55624e-05
1.67272e-05
1.8511e-05
2.11645e-05
2.71879e-05
3.84405e-05
5.26667e-05
3.51291e-05
4.04236e-05
4.10391e-05
2.91577e-05
2.57958e-05
2.41949e-05
2.2421e-05
2.03378e-05
1.82646e-05
1.70693e-05
1.82447e-05
2.00246e-05
1.89258e-05
1.86242e-05
1.90862e-05
2.00739e-05
2.16893e-05
2.61159e-05
3.69359e-05
5.58765e-05
3.94317e-05
4.78267e-05
5.36446e-05
3.74913e-05
3.7753e-05
4.00094e-05
4.1448e-05
4.08232e-05
3.7288e-05
3.1301e-05
2.60505e-05
2.52103e-05
2.88485e-05
3.47243e-05
3.79601e-05
3.71565e-05
3.43322e-05
3.40429e-05
4.04874e-05
5.36847e-05
4.4133e-05
5.5719e-05
6.5064e-05
8.26431e-05
0.000105426
0.000129961
0.00014848
0.000156039
0.000146343
0.000119073
8.96918e-05
8.06961e-05
9.7118e-05
0.00012081
0.000134435
0.000130494
0.000111282
8.99356e-05
7.54522e-05
6.03665e-05
4.95397e-05
6.46916e-05
7.74873e-05
8.88954e-05
0.000100143
0.000111677
0.000122291
0.000131364
0.000138243
0.000142374
0.000142669
0.000131918
0.000126781
0.000121216
0.000114671
0.000106541
9.68283e-05
8.64535e-05
7.66815e-05
6.67993e-05
5.57229e-05
3.02321e-06
4.46657e-06
5.26183e-06
5.76927e-06
6.0605e-06
6.10986e-06
5.86595e-06
5.82771e-06
6.76244e-06
6.96034e-06
7.01286e-06
7.19692e-06
7.32599e-06
7.17937e-06
7.0207e-06
6.89795e-06
8.69507e-06
1.54229e-05
1.62408e-05
1.38591e-05
4.48131e-06
9.75283e-06
1.11634e-05
1.11854e-05
1.07663e-05
9.98789e-06
9.33344e-06
9.90519e-06
1.40504e-05
1.39825e-05
1.10652e-05
1.01617e-05
1.04766e-05
1.12689e-05
1.24065e-05
1.46756e-05
1.52317e-05
1.64884e-05
1.65566e-05
1.41422e-05
7.92331e-06
1.1837e-05
1.39184e-05
1.44552e-05
1.38975e-05
1.28443e-05
1.18474e-05
1.19004e-05
1.51774e-05
1.54339e-05
1.27586e-05
1.17871e-05
1.24153e-05
1.3788e-05
1.53411e-05
1.65621e-05
1.77301e-05
1.92427e-05
1.98698e-05
1.5582e-05
1.14031e-05
1.35466e-05
1.5604e-05
1.63707e-05
1.62316e-05
1.56157e-05
1.46059e-05
1.38859e-05
1.55399e-05
1.82882e-05
1.55817e-05
1.35942e-05
1.40099e-05
1.53881e-05
1.68538e-05
1.8502e-05
2.08147e-05
2.3973e-05
2.65566e-05
2.21508e-05
2.1026e-05
1.82951e-05
1.7559e-05
1.77802e-05
1.75323e-05
1.68444e-05
1.59277e-05
1.51296e-05
1.60881e-05
2.08296e-05
1.97341e-05
1.5716e-05
1.53695e-05
1.64383e-05
1.79749e-05
2.02139e-05
2.39141e-05
2.95463e-05
3.57009e-05
2.84942e-05
3.08431e-05
2.49297e-05
1.99949e-05
1.89737e-05
1.84164e-05
1.75306e-05
1.64358e-05
1.55575e-05
1.63202e-05
2.19768e-05
2.27147e-05
1.71535e-05
1.58265e-05
1.66386e-05
1.84042e-05
2.1041e-05
2.56848e-05
3.39968e-05
4.70752e-05
3.39298e-05
3.9441e-05
3.39475e-05
2.36187e-05
2.13413e-05
2.09086e-05
2.03378e-05
1.93862e-05
1.84023e-05
1.8847e-05
2.43871e-05
2.69543e-05
2.14101e-05
1.94048e-05
1.93492e-05
2.0353e-05
2.22981e-05
2.62691e-05
3.51234e-05
5.49713e-05
3.88302e-05
4.75237e-05
5.16108e-05
3.3117e-05
3.46869e-05
3.81866e-05
4.08232e-05
4.08421e-05
3.72586e-05
3.18511e-05
3.10271e-05
3.16651e-05
3.0174e-05
3.45671e-05
3.77107e-05
3.75197e-05
3.56466e-05
3.54253e-05
4.03003e-05
5.3932e-05
4.3942e-05
5.61087e-05
6.43647e-05
8.08633e-05
0.000108259
0.000135995
0.000156039
0.000160758
0.000143942
0.000115897
0.000103479
9.37747e-05
9.63502e-05
0.000118825
0.00013593
0.000134007
0.0001157
9.32107e-05
7.49888e-05
5.98874e-05
4.96598e-05
6.62798e-05
8.00841e-05
9.25569e-05
0.000105365
0.000118669
0.000131364
0.000143009
0.0001535
0.000163107
0.000170842
0.000157309
0.000145001
0.000134161
0.000124073
0.000113497
0.000102003
9.02102e-05
7.91765e-05
6.84557e-05
5.66735e-05
3.01199e-06
4.16319e-06
4.87752e-06
5.29448e-06
5.70076e-06
5.83371e-06
5.82771e-06
6.0828e-06
7.35198e-06
7.87313e-06
7.59606e-06
7.46506e-06
7.32597e-06
6.93517e-06
6.96388e-06
7.26388e-06
7.44232e-06
7.86137e-06
7.56732e-06
5.5861e-06
4.75594e-06
7.94119e-06
9.69223e-06
1.05686e-05
1.09419e-05
1.04184e-05
9.90519e-06
1.07599e-05
1.5423e-05
1.65611e-05
1.3138e-05
1.21536e-05
1.23271e-05
1.23437e-05
1.23069e-05
1.3248e-05
1.46563e-05
1.40936e-05
1.26808e-05
1.04367e-05
5.01979e-06
1.02826e-05
1.29985e-05
1.39327e-05
1.36459e-05
1.27462e-05
1.19004e-05
1.231e-05
1.6619e-05
2.19939e-05
1.87594e-05
1.4028e-05
1.34186e-05
1.37337e-05
1.47718e-05
1.63076e-05
1.66154e-05
1.62266e-05
1.58479e-05
1.34839e-05
8.24265e-06
1.07613e-05
1.33679e-05
1.4891e-05
1.53113e-05
1.47848e-05
1.38859e-05
1.37892e-05
1.78236e-05
3.10701e-05
2.76271e-05
1.65971e-05
1.42102e-05
1.47932e-05
1.61425e-05
1.74825e-05
1.85361e-05
1.9638e-05
2.1094e-05
2.00129e-05
1.8728e-05
1.47085e-05
1.41997e-05
1.51077e-05
1.56821e-05
1.56028e-05
1.51296e-05
1.51779e-05
2.01895e-05
4.34237e-05
4.00219e-05
2.03708e-05
1.55368e-05
1.57935e-05
1.71341e-05
1.89046e-05
2.10771e-05
2.41218e-05
2.85425e-05
2.65327e-05
2.91127e-05
2.09792e-05
1.60421e-05
1.54816e-05
1.57482e-05
1.577e-05
1.55575e-05
1.60046e-05
2.28656e-05
5.69811e-05
5.34434e-05
2.35351e-05
1.64064e-05
1.62582e-05
1.76812e-05
1.99206e-05
2.32763e-05
2.90177e-05
3.96796e-05
3.23556e-05
3.80562e-05
2.87287e-05
1.92806e-05
1.75291e-05
1.78656e-05
1.82646e-05
1.84023e-05
1.92107e-05
2.76645e-05
6.97415e-05
6.76218e-05
2.9556e-05
2.01887e-05
1.91385e-05
1.99436e-05
2.17786e-05
2.50988e-05
3.20979e-05
5.07339e-05
3.75919e-05
4.64409e-05
4.75025e-05
2.84857e-05
3.05158e-05
3.44257e-05
3.7288e-05
3.72586e-05
3.46197e-05
3.82366e-05
8.4411e-05
8.32398e-05
3.55364e-05
3.20834e-05
3.46303e-05
3.53685e-05
3.45909e-05
3.46909e-05
3.78519e-05
5.18471e-05
4.28917e-05
5.54734e-05
6.13018e-05
7.46251e-05
0.000103546
0.000130206
0.000146343
0.000143942
0.000126543
0.000125742
0.000162211
0.000145226
0.000102686
0.000106643
0.000123641
0.000125516
0.000110597
8.97711e-05
6.99738e-05
5.68312e-05
4.87691e-05
6.68573e-05
8.12339e-05
9.43547e-05
0.000108383
0.000123278
0.000138243
0.0001535
0.000170187
0.000189934
0.000211259
0.000194215
0.000167972
0.000148003
0.000132506
0.000118754
0.0001053
9.21789e-05
8.01243e-05
6.89122e-05
5.67764e-05
2.9585e-06
3.95446e-06
4.63156e-06
5.25764e-06
6.0149e-06
6.40125e-06
6.76244e-06
7.35198e-06
8.42122e-06
8.91022e-06
9.02889e-06
9.24936e-06
9.02481e-06
8.33032e-06
7.95092e-06
7.70635e-06
7.6244e-06
7.32495e-06
6.57866e-06
5.26593e-06
4.92749e-06
7.52187e-06
9.16995e-06
1.09276e-05
1.29329e-05
1.36079e-05
1.40504e-05
1.5423e-05
1.84137e-05
4.26894e-05
3.79372e-05
2.07332e-05
1.81995e-05
1.53812e-05
1.3758e-05
1.3244e-05
1.33917e-05
1.32967e-05
1.17779e-05
8.65154e-06
5.74103e-06
1.02369e-05
1.27258e-05
1.41801e-05
1.50713e-05
1.51061e-05
1.51774e-05
1.6619e-05
2.64707e-05
9.49236e-05
8.97206e-05
3.21782e-05
1.87149e-05
1.57618e-05
1.47462e-05
1.52866e-05
1.59593e-05
1.49408e-05
1.36531e-05
1.16504e-05
6.10036e-06
9.95301e-06
1.28614e-05
1.47956e-05
1.57724e-05
1.56462e-05
1.55399e-05
1.78236e-05
3.78821e-05
0.000153996
0.00014559
4.59409e-05
1.94196e-05
1.56324e-05
1.52895e-05
1.6084e-05
1.66079e-05
1.67233e-05
1.74521e-05
1.80029e-05
1.64596e-05
1.26871e-05
1.24985e-05
1.39379e-05
1.5215e-05
1.56809e-05
1.60881e-05
2.01895e-05
5.52491e-05
0.000221547
0.000203654
6.19819e-05
2.07969e-05
1.59633e-05
1.58866e-05
1.69444e-05
1.81983e-05
1.98531e-05
2.33574e-05
2.45567e-05
2.73156e-05
1.85629e-05
1.36828e-05
1.34028e-05
1.43888e-05
1.52481e-05
1.63202e-05
2.28656e-05
7.67144e-05
0.000289279
0.000254203
7.74398e-05
2.2242e-05
1.64118e-05
1.64811e-05
1.79369e-05
2.02207e-05
2.42675e-05
3.3247e-05
3.05255e-05
3.6318e-05
2.52603e-05
1.64123e-05
1.48249e-05
1.57535e-05
1.70693e-05
1.8847e-05
2.76645e-05
9.82017e-05
0.000342896
0.000289672
9.11103e-05
2.60259e-05
1.92271e-05
1.89537e-05
2.01987e-05
2.27193e-05
2.8319e-05
4.48906e-05
3.58588e-05
4.46516e-05
4.22548e-05
2.43341e-05
2.57492e-05
2.90833e-05
3.1301e-05
3.18511e-05
3.82366e-05
0.000114329
0.000356702
0.000295107
9.2721e-05
3.26393e-05
3.00517e-05
3.11302e-05
3.13178e-05
3.17284e-05
3.3773e-05
4.84846e-05
4.10984e-05
5.37298e-05
5.59247e-05
6.42554e-05
9.09766e-05
0.000111298
0.000119073
0.000115897
0.000125742
0.000188106
0.000310594
0.00027182
0.00014621
0.000100713
0.000101842
0.000106239
9.73218e-05
8.04188e-05
6.12994e-05
5.13743e-05
4.68774e-05
6.61492e-05
8.04634e-05
9.35789e-05
0.000108431
0.000124707
0.000142374
0.000163107
0.000189934
0.000225307
0.000262006
0.000243019
0.000196963
0.000163007
0.000139554
0.000121759
0.000106243
9.19439e-05
7.91411e-05
6.79314e-05
5.58882e-05
2.8561e-06
3.73834e-06
4.3445e-06
5.14806e-06
5.99808e-06
6.43623e-06
6.96034e-06
7.87313e-06
8.91022e-06
9.05798e-06
1.09524e-05
1.17744e-05
1.10814e-05
1.03747e-05
9.85728e-06
9.27343e-06
8.48709e-06
7.51698e-06
6.12308e-06
4.76087e-06
4.53348e-06
6.96469e-06
8.36754e-06
9.99973e-06
1.16692e-05
1.25346e-05
1.39825e-05
1.65611e-05
4.26894e-05
4.18821e-05
4.57483e-05
4.50556e-05
1.7237e-05
1.54941e-05
1.46747e-05
1.43451e-05
1.41429e-05
1.29996e-05
1.08525e-05
7.61513e-06
5.50936e-06
9.29741e-06
1.11013e-05
1.25934e-05
1.38397e-05
1.43701e-05
1.54339e-05
2.19939e-05
9.49236e-05
7.56967e-05
7.8252e-05
9.20164e-05
2.03976e-05
1.60837e-05
1.53012e-05
1.50523e-05
1.49785e-05
1.4053e-05
1.22191e-05
1.02559e-05
5.44301e-06
1.02218e-05
1.2691e-05
1.51343e-05
1.64402e-05
1.68471e-05
1.82882e-05
3.10701e-05
0.000153996
0.000113002
0.000112393
0.000137339
2.42221e-05
1.62884e-05
1.51162e-05
1.48646e-05
1.48286e-05
1.46166e-05
1.53646e-05
1.71935e-05
1.52861e-05
1.23596e-05
1.22055e-05
1.42454e-05
1.67031e-05
1.80974e-05
2.08296e-05
4.34237e-05
0.000221547
0.000153486
0.000149175
0.000183658
2.90351e-05
1.67179e-05
1.51836e-05
1.50222e-05
1.55756e-05
1.68682e-05
2.069e-05
2.3728e-05
2.57552e-05
1.77885e-05
1.30425e-05
1.30011e-05
1.50426e-05
1.72757e-05
2.19768e-05
5.69811e-05
0.000289279
0.00019414
0.000187848
0.000225803
3.48637e-05
1.7648e-05
1.57606e-05
1.58663e-05
1.72703e-05
2.07062e-05
2.96122e-05
2.92728e-05
3.42687e-05
2.37539e-05
1.53065e-05
1.37219e-05
1.54804e-05
1.82447e-05
2.43871e-05
6.97415e-05
0.000342896
0.000228799
0.000224473
0.000251807
4.27589e-05
2.08722e-05
1.84019e-05
1.83229e-05
1.99498e-05
2.48937e-05
4.07225e-05
3.41739e-05
4.19861e-05
3.79796e-05
2.14989e-05
2.15131e-05
2.39934e-05
2.60505e-05
3.10271e-05
8.4411e-05
0.000356702
0.000249664
0.000250795
0.000244527
4.69121e-05
2.78475e-05
2.73062e-05
2.74774e-05
2.78761e-05
2.95886e-05
4.53866e-05
3.89726e-05
5.03104e-05
4.80221e-05
5.21145e-05
7.34723e-05
8.58767e-05
8.96918e-05
0.000103479
0.000162211
0.000310594
0.000266082
0.000266287
0.000228871
0.000118209
8.64835e-05
8.71052e-05
8.22407e-05
6.90568e-05
5.20383e-05
4.5318e-05
4.4289e-05
6.3146e-05
7.67534e-05
8.90639e-05
0.000104326
0.000121796
0.000142669
0.000170842
0.000211259
0.000262006
0.000252867
0.000251782
0.000224221
0.000177466
0.000144413
0.000122071
0.000104507
8.9223e-05
7.59833e-05
6.52662e-05
5.37188e-05
2.77739e-06
3.64357e-06
4.36441e-06
5.55335e-06
6.46918e-06
6.82168e-06
7.01286e-06
7.59606e-06
9.02889e-06
1.09524e-05
1.63503e-05
1.62364e-05
1.52089e-05
1.45697e-05
1.39832e-05
1.3142e-05
1.17161e-05
9.44625e-06
6.66675e-06
4.80097e-06
4.13593e-06
6.54963e-06
8.20747e-06
9.63324e-06
1.05147e-05
1.07689e-05
1.10652e-05
1.3138e-05
3.79372e-05
4.57483e-05
4.87152e-05
2.85516e-05
1.67881e-05
1.61882e-05
1.59613e-05
1.58162e-05
1.53797e-05
1.46118e-05
1.0271e-05
6.79261e-06
4.74102e-06
8.19503e-06
1.00414e-05
1.16363e-05
1.24111e-05
1.25085e-05
1.27586e-05
1.87594e-05
8.97206e-05
7.8252e-05
8.39818e-05
5.47268e-05
1.79805e-05
1.65548e-05
1.62043e-05
1.56599e-05
1.45075e-05
1.27845e-05
1.11235e-05
9.98324e-06
5.57212e-06
9.21846e-06
1.24168e-05
1.40494e-05
1.46144e-05
1.47768e-05
1.55817e-05
2.76271e-05
0.00014559
0.000112393
0.000128034
7.65324e-05
1.91659e-05
1.62807e-05
1.53808e-05
1.43153e-05
1.35342e-05
1.33203e-05
1.46067e-05
1.77147e-05
1.67563e-05
1.25178e-05
1.22301e-05
1.46924e-05
1.65717e-05
1.75062e-05
1.97341e-05
4.00219e-05
0.000203654
0.000149175
0.000182149
9.76768e-05
2.06574e-05
1.61899e-05
1.50013e-05
1.39607e-05
1.38872e-05
1.53114e-05
2.00415e-05
2.42439e-05
2.64939e-05
1.82203e-05
1.31549e-05
1.31842e-05
1.55805e-05
1.82745e-05
2.27147e-05
5.34434e-05
0.000254203
0.000187848
0.000242457
0.000117762
2.2897e-05
1.6814e-05
1.5529e-05
1.47067e-05
1.53858e-05
1.88582e-05
2.87507e-05
2.96615e-05
3.44128e-05
2.41576e-05
1.53341e-05
1.36478e-05
1.61e-05
2.00246e-05
2.69543e-05
6.76218e-05
0.000289672
0.000224473
0.000299864
0.000132684
2.79316e-05
1.99957e-05
1.84571e-05
1.74103e-05
1.80765e-05
2.28114e-05
3.95893e-05
3.44889e-05
4.15502e-05
3.79972e-05
2.07145e-05
2.01071e-05
2.24354e-05
2.52103e-05
3.16651e-05
8.32398e-05
0.000295107
0.000250795
0.000344058
0.000129037
3.53724e-05
2.95136e-05
2.82414e-05
2.66199e-05
2.60358e-05
2.73527e-05
4.33734e-05
3.92754e-05
4.92012e-05
4.65901e-05
4.88721e-05
6.7216e-05
7.70843e-05
8.06961e-05
9.37747e-05
0.000145226
0.00027182
0.000266287
0.000344865
0.000178854
0.000106662
9.36149e-05
9.19016e-05
8.25062e-05
6.80454e-05
5.07531e-05
4.49975e-05
4.48853e-05
6.10547e-05
7.34783e-05
8.45239e-05
9.7879e-05
0.000113283
0.000131918
0.000157309
0.000194215
0.000243019
0.000251782
0.00028998
0.000223945
0.000176999
0.000146208
0.000124087
0.000106098
9.05938e-05
7.7388e-05
6.64789e-05
5.47757e-05
2.6955e-06
3.80383e-06
4.9531e-06
6.11879e-06
7.0364e-06
7.29231e-06
7.19692e-06
7.46506e-06
9.24936e-06
1.17744e-05
1.62364e-05
1.73017e-05
1.79001e-05
1.8269e-05
1.84253e-05
1.82161e-05
1.74306e-05
1.57834e-05
1.27458e-05
7.98282e-06
3.67807e-06
6.8488e-06
8.65707e-06
9.67979e-06
1.02661e-05
1.03068e-05
1.01617e-05
1.21536e-05
2.07332e-05
4.50556e-05
2.85516e-05
1.81809e-05
1.86116e-05
1.87165e-05
1.8878e-05
1.88282e-05
1.81954e-05
1.65613e-05
1.3347e-05
6.98007e-06
3.91411e-06
8.16907e-06
1.03894e-05
1.17022e-05
1.22702e-05
1.21142e-05
1.17871e-05
1.4028e-05
3.21782e-05
9.20164e-05
5.47268e-05
1.92453e-05
1.80481e-05
1.80689e-05
1.79916e-05
1.75706e-05
1.63366e-05
1.38128e-05
1.12189e-05
1.10932e-05
6.57377e-06
8.68008e-06
1.20902e-05
1.3412e-05
1.38896e-05
1.37893e-05
1.35942e-05
1.65971e-05
4.59409e-05
0.000137339
7.65324e-05
2.07079e-05
1.74644e-05
1.73341e-05
1.6827e-05
1.56338e-05
1.38894e-05
1.31492e-05
1.49534e-05
1.89045e-05
1.83658e-05
1.29532e-05
1.25485e-05
1.43831e-05
1.51722e-05
1.53937e-05
1.5716e-05
2.03708e-05
6.19819e-05
0.000183658
9.76768e-05
2.26768e-05
1.71057e-05
1.68382e-05
1.6068e-05
1.46654e-05
1.36961e-05
1.51342e-05
2.06063e-05
2.52822e-05
2.7644e-05
1.90235e-05
1.36668e-05
1.3439e-05
1.46616e-05
1.58747e-05
1.71535e-05
2.35351e-05
7.74398e-05
0.000225803
0.000117762
2.54786e-05
1.73203e-05
1.69472e-05
1.61979e-05
1.50452e-05
1.4988e-05
1.85598e-05
2.95308e-05
3.06052e-05
3.53008e-05
2.52176e-05
1.59524e-05
1.42459e-05
1.62254e-05
1.89258e-05
2.14101e-05
2.9556e-05
9.11103e-05
0.000251807
0.000132684
3.09794e-05
1.9959e-05
1.93283e-05
1.86948e-05
1.76734e-05
1.76761e-05
2.21427e-05
4.03269e-05
3.54301e-05
4.23141e-05
4.0155e-05
2.18016e-05
2.23685e-05
2.57545e-05
2.88485e-05
3.0174e-05
3.55364e-05
9.2721e-05
0.000244527
0.000129037
4.00992e-05
3.36219e-05
3.38373e-05
3.21882e-05
2.93324e-05
2.71588e-05
2.75244e-05
4.28246e-05
4.03105e-05
4.99629e-05
4.96979e-05
5.51958e-05
7.68271e-05
9.15483e-05
9.7118e-05
9.63502e-05
0.000102686
0.00014621
0.000228871
0.000178854
0.000111917
0.000114467
0.000119964
0.000110816
9.46939e-05
7.61074e-05
5.62156e-05
4.80606e-05
4.63665e-05
6.12692e-05
7.36942e-05
8.48952e-05
9.74517e-05
0.000111378
0.000126781
0.000145001
0.000167972
0.000196963
0.000224221
0.000223945
0.000189163
0.000162362
0.000140998
0.000122675
0.000106432
9.18988e-05
7.92375e-05
6.80557e-05
5.61186e-05
2.7873e-06
4.52295e-06
5.71864e-06
6.70129e-06
7.69428e-06
7.68593e-06
7.32599e-06
7.32597e-06
9.02481e-06
1.10814e-05
1.52089e-05
1.79001e-05
1.9607e-05
2.07621e-05
2.15199e-05
2.18681e-05
2.17239e-05
2.09635e-05
1.94981e-05
1.74834e-05
3.61109e-06
7.88987e-06
9.61293e-06
1.0589e-05
1.10423e-05
1.07779e-05
1.04766e-05
1.23271e-05
1.81995e-05
1.7237e-05
1.67881e-05
1.86116e-05
2.03308e-05
2.14497e-05
2.22725e-05
2.27758e-05
2.26037e-05
2.12162e-05
1.79632e-05
1.08885e-05
4.38126e-06
9.35911e-06
1.16126e-05
1.28136e-05
1.33236e-05
1.30148e-05
1.24153e-05
1.34186e-05
1.87149e-05
2.03976e-05
1.79805e-05
1.80481e-05
1.91716e-05
1.9791e-05
2.00394e-05
1.98594e-05
1.8948e-05
1.70493e-05
1.44506e-05
1.28403e-05
8.02309e-06
1.02713e-05
1.27792e-05