/*--------------------------------*- C++ -*----------------------------------*\
  =========                 |
  \\      /  F ield         | OpenFOAM: The Open Source CFD Toolbox
   \\    /   O peration     | Website:  https://openfoam.org
    \\  /    A nd           | Version:  8
     \\/     M anipulation  |
\*---------------------------------------------------------------------------*/
FoamFile
{
    version     2.0;
    format      ascii;
    class       surfaceScalarField;
    location    "1800";
    object      phi;
}
// * * * * * * * * * * * * * * * * * * * * * * * * * * * * * * * * * * * * * //

dimensions      [1 0 -1 0 0 0 0];

internalField   nonuniform List<scalar> 
11200
(
0.00325869
-0.00650301
0.00325869
0.00494166
-0.00455131
0.00286834
0.0051846
-0.00251415
0.00227121
0.00380523
-0.000341333
0.0017207
0.000993181
0.00153152
0.00128052
-0.000566494
0.000802764
0.000756925
-0.000510707
-9.44096e-05
3.86185e-05
-0.000162673
-0.000173291
-0.000174745
0.000212984
-0.000163735
-0.000211925
0.000518466
-0.00016612
-0.000139365
0.000761175
-0.000170597
-7.21146e-05
0.000896591
-0.000167773
3.23554e-05
0.000986302
-0.000160123
7.04085e-05
0.000391354
-5.90123e-05
0.000653953
-0.00230197
0.00149833
0.001195
-0.00478579
0.00120091
0.00128291
-0.00599879
-0.000206014
0.00141901
-0.0058308
-0.00186785
0.00169985
-0.00402548
-0.00378722
0.0019819
-0.00621574
0.00219025
0.00154735
-0.00959772
0.00154735
0.00244104
-0.00696451
0.00151951
0.00270459
-0.00396538
0.00118768
0.00198576
-0.000382341
0.000759838
0.000955318
0.00185905
0.000702915
0.000180046
0.000974162
0.000603874
-0.000257527
0.000168209
0.000174948
-0.000190094
0.000110307
-0.000351035
9.2704e-05
9.99142e-05
-0.000546452
0.00028931
0.00010038
-0.000463109
0.000397834
8.30813e-05
-0.000362206
0.000315141
9.76414e-05
-0.000182725
-5.06828e-05
0.000133887
7.18095e-05
-0.000289164
-1.25446e-05
0.000192011
-0.000637273
0.00103837
0.000808068
-0.00173865
0.00149146
0.000810823
-0.0027543
-3.40042e-06
0.000813036
-0.00273022
-0.00304235
0.00115041
-0.00182278
-0.00599851
0.00130384
-0.00936877
0.00133025
0.000650981
-0.0108997
0.000650981
0.000830483
-0.00809252
0.000948511
0.000825705
-0.0048689
0.000908289
0.00111358
-0.00139893
0.000728712
0.00129087
0.00104184
0.000639913
0.0010329
0.000618841
0.000613291
0.000374976
0.000296522
0.000529606
2.71108e-05
0.000282756
0.000175411
0.000201029
0.000260272
-0.00033428
0.000450388
0.000263067
-0.000412049
0.000534616
0.000224122
-0.000225272
0.000347104
0.000214878
7.02723e-05
-0.000183579
0.000297973
0.00036659
-0.000598647
8.54708e-05
0.000317046
-0.000288507
5.67248e-05
0.000671497
-4.49079e-05
0.000387599
0.000860256
1.97571e-05
-0.00117115
0.00110308
-0.000384407
-0.00387872
0.00124054
-0.000416438
-0.00709739
0.00113091
-0.0107065
0.000921294
0.000178798
-0.0112573
0.000178798
-0.000122503
-0.00854003
0.000748803
-0.000359161
-0.00560251
0.000970269
0.000193893
-0.00305058
0.00109859
0.00109213
-0.00096287
0.00110647
0.00124266
-0.000588982
0.0010573
0.000926382
-0.00037328
0.00098608
0.000566772
-0.00012225
0.000764615
0.000453227
2.56495e-05
0.000348164
0.000570902
5.63905e-05
8.8997e-05
0.000647671
-0.000130237
0.000277587
0.000527963
-0.000323407
0.000657992
0.000304474
-0.000430706
0.000952166
0.000112258
-0.000662689
0.000940373
0.000388979
-0.00120185
0.00098186
0.00102834
-0.00151417
0.00126241
0.00120409
-0.00281243
0.00146553
0.000849096
-0.00488409
0.00136036
0.000335319
-0.00771183
0.0011282
-0.0110915
0.000720315
-0.00010604
-0.0110452
-0.00010604
-0.00069296
-0.00862233
0.000669217
-0.00108464
-0.0062108
0.000999966
-0.00110851
-0.00429564
0.00126893
-0.000618413
-0.00290826
0.00145529
-0.000364579
-0.00227733
0.00143451
-0.000254725
-0.00184902
0.00136588
-0.000102416
-0.00150618
0.00123162
0.000123879
-0.00123268
0.00103203
0.00039527
-0.00114102
0.000926018
0.00069001
-0.00144195
0.00101697
0.000929756
-0.00174442
0.00118126
0.00117801
-0.00199178
0.00131282
0.00144211
-0.00227116
0.00134438
0.00162256
-0.00268714
0.00130483
0.00192386
-0.00320444
0.00138896
0.00187661
-0.00419632
0.00143114
0.00145614
-0.00576738
0.00130376
0.000702348
-0.00804882
0.00109078
-0.0109591
0.000569955
-0.000287014
-0.0104712
-0.000287014
-0.00106096
-0.0084398
0.000591417
-0.00159084
-0.00658258
0.000901658
-0.00175481
-0.00523311
0.00110143
-0.00157343
-0.00432139
0.00123176
-0.00131394
-0.00379137
0.00125455
-0.000967087
-0.00340881
0.00121293
-0.000536013
-0.00308799
0.00115073
-4.2764e-05
-0.00279958
0.00107365
0.000446398
-0.00268598
0.00105579
0.000926564
-0.00298243
0.00106031
0.00136009
-0.00326292
0.00108498
0.00175942
-0.00349965
0.00110853
0.00211572
-0.0037492
0.00112173
0.00236514
-0.00406437
0.00112781
0.00249779
-0.00448977
0.00115268
0.00233861
-0.00519617
0.00115901
0.00181221
-0.00633222
0.00109124
0.000895286
-0.00808462
0.000952716
-0.010451
0.000387148
-0.00047825
-0.00951468
-0.00047825
-0.0014133
-0.00791092
0.00040616
-0.00204837
-0.00658416
0.000636652
-0.00227628
-0.00571666
0.000711461
-0.00214753
-0.00515956
0.000709417
-0.00181004
-0.00482852
0.000699652
-0.00133252
-0.00458411
0.000697782
-0.000749777
-0.00434549
0.000674757
-0.00010214
-0.00409524
0.000648017
0.000516373
-0.00397571
0.000671221
0.0010803
-0.00420257
0.000656214
0.00161764
-0.00442937
0.000629097
0.00211501
-0.00461356
0.000616537
0.00255111
-0.00477537
0.000590061
0.00286336
-0.00495495
0.000578323
0.00297508
-0.00521532
0.000613833
0.00275714
-0.00567032
0.000692085
0.00212817
-0.00643031
0.000727066
0.00105943
-0.00769217
0.000676287
-0.00949613
0.000104572
-0.000795268
-0.00792415
-0.000795268
-0.00189939
-0.00670578
-0.000101028
-0.00262298
-0.00585436
-6.2034e-06
-0.00287552
-0.0053909
-7.3228e-05
-0.00272511
-0.00513061
-0.000179367
-0.00228934
-0.00498848
-0.000275809
-0.00165351
-0.00488247
-0.000337471
-0.000903468
-0.00476022
-0.000335323
-0.00012333
-0.00458966
-0.000285723
0.00054641
-0.0044622
-0.000183256
0.00117457
-0.00461158
-0.00021916
0.00182509
-0.00476307
-0.000316819
0.00245684
-0.00485828
-0.000387039
0.00300345
-0.0049234
-0.00039857
0.00339461
-0.00498653
-0.000359592
0.00353276
-0.00509171
-0.000261762
0.00329087
-0.00530898
-0.000119456
0.00256749
-0.00572855
2.16203e-05
0.001336
-0.00654767
8.69835e-05
-0.00788
-0.000280137
-0.00140444
-0.00511526
-0.00140444
-0.00270492
-0.00441805
-0.000987243
-0.00347136
-0.00406861
-0.00101931
-0.00370569
-0.00397977
-0.0011768
-0.0035018
-0.00398863
-0.00134587
-0.00296601
-0.00403992
-0.00148435
-0.00218229
-0.00408445
-0.00158174
-0.00123452
-0.00408749
-0.0016205
-0.000229089
-0.00401406
-0.00158103
0.000586502
-0.00389734
-0.00138046
0.00137497
-0.00397678
-0.00142327
0.00220525
-0.0040489
-0.00154445
0.00298937
-0.00405529
-0.00158711
0.00365098
-0.00401314
-0.00157187
0.00412476
-0.00394936
-0.00151096
0.00430937
-0.00389353
-0.0013828
0.00407607
-0.00388095
-0.00119473
0.0032962
-0.00396271
-0.000985972
0.00187941
-0.00430106
-0.000829826
-0.00505482
-0.000945771
-0.00255763
-0.00255763
-0.00415798
-0.00281771
-0.00490201
-0.00332458
-0.00506753
-0.00381425
-0.00477859
-0.00427757
-0.00413142
-0.0046871
-0.00319281
-0.00502305
-0.00199765
-0.00528266
-0.000611674
-0.00540004
0.000685909
-0.00519492
0.00182102
-0.0051119
0.00294776
-0.00517563
0.00394048
-0.00504801
0.00474469
-0.00481736
0.00531035
-0.00451502
0.00556222
-0.00414539
0.00538718
-0.00370592
0.00462753
-0.00320306
0.00294829
-0.00262183
-0.00210653
0.00286834
-0.00455131
0.00494166
0.0045068
-0.00327694
0.0045068
0.00478187
-0.00164402
0.00364016
0.00361997
0.000200459
0.00268213
0.00126479
0.00181568
0.00182002
-0.00018088
0.00127953
0.000923082
-0.000283116
-0.000101624
0.000242475
-3.91461e-05
-0.00022354
-0.000195176
0.000180478
-0.000165511
-0.00026604
0.000337077
-0.000146671
-0.000149297
0.000452148
-0.000148292
-3.88984e-05
0.000480341
-0.000146323
0.000150478
0.00053931
-0.000246974
0.000258407
-0.000447532
0.000379235
0.00126155
-0.00297975
0.00188609
0.00184112
-0.00502986
0.00127179
0.00206122
-0.00600303
-9.00375e-05
0.00248221
-0.00574542
-0.00157755
0.0030198
-0.00392514
-0.00340134
0.00356295
-0.0055945
0.00385961
0.00151951
-0.00696451
0.00244104
0.00254905
-0.00533603
0.00254905
0.00288766
-0.00290005
0.0021051
0.00224895
0.000178052
0.00142096
0.00149481
0.00208261
0.00119012
0.000935369
0.00142415
0.00101869
0.000298324
0.00027363
0.000436735
6.60631e-06
1.90602e-05
-0.000301922
-5.81694e-05
4.44296e-05
-0.000691621
-0.000152669
9.10403e-05
-0.000606325
-0.000255884
3.89347e-05
-0.000446219
-0.000401902
-9.52363e-05
-8.77979e-05
-0.000645296
-0.000311655
0.000379883
-0.00103294
0.000263821
0.000695073
-0.00141478
0.00179684
0.00127915
-0.00233976
0.00173868
0.00126891
-0.00326035
0.00025949
0.00138409
-0.00318031
-0.00241031
0.00190311
-0.00211034
-0.00536933
0.00220186
-0.00846372
0.00208913
0.000948511
-0.00809252
0.000830483
0.00149645
-0.00643191
0.00149645
0.00170795
-0.00373411
0.00153084
0.00181852
-0.000455842
0.00125203
0.00179244
0.00165289
0.00109572
0.00148734
0.0013002
0.00104233
0.000908609
0.000608287
0.00077368
0.000467924
0.000388024
0.000247128
0.000225193
0.000366355
-0.000413478
8.52523e-05
0.000397824
-0.000578896
-0.000124338
0.000355031
-0.000331782
-0.00045119
0.000215108
8.67787e-05
-0.000884402
8.18607e-05
0.000406286
-0.00113878
0.000246916
0.000588325
-0.000837572
0.00112802
0.00103911
-0.000866718
0.00144088
0.0011872
-0.00109028
0.000138061
0.00144808
-0.00134094
-0.00268264
0.00176352
-0.00104001
-0.00625211
0.00171276
-0.00970068
0.00111824
0.000748803
-0.00854003
-0.000122503
0.000964535
-0.00686338
0.000964535
0.000928713
-0.00414575
0.00141773
0.00120656
-0.00107981
0.0014447
0.00168796
0.000912017
0.00136594
0.00167981
0.0010205
0.00134514
0.00126429
0.00082745
0.00118243
0.000820435
0.000786193
0.000810303
0.000567895
0.000769044
0.00019801
0.00048849
0.000753596
-0.000187374
0.000371288
0.00072153
2.82861e-05
1.49784e-05
0.000677908
0.000551498
-0.000483089
0.000633862
0.00089823
-0.000778263
0.000544526
0.000937935
-0.000421385
0.000608548
0.00114445
4.71453e-05
0.000769217
0.00146555
0.000133075
-0.000341815
0.00185947
-0.000288368
-0.00283993
0.00193908
-0.00048246
-0.00649193
0.0015621
-0.0100186
0.000555751
0.000669217
-0.00862233
-0.00069296
0.000656788
-0.00683852
0.000656788
0.00037916
-0.0042105
0.00134234
0.000429619
-0.00150634
0.00164501
0.000821834
0.000212563
0.00176252
0.000863723
0.000702786
0.00171033
0.000639563
0.000869855
0.00154763
0.000413739
0.0010029
0.00124074
0.000359663
0.0010663
0.000788851
0.000489644
0.00105941
0.000490216
0.000595129
0.000995873
0.000637137
0.000533369
0.000912705
0.00100822
0.00038291
0.000824837
0.0012723
0.000273925
0.000645236
0.00135265
0.000386301
0.000375955
0.00142505
0.000716161
0.00010998
0.00171834
0.000678055
-0.000926007
0.00205343
0.000218324
-0.00307216
0.00199572
-0.000196986
-0.00641786
0.00143202
-0.00979389
0.000148267
0.000591417
-0.0084398
-0.00106096
0.000414636
-0.00648496
0.000414636
-1.63875e-05
-0.00405474
0.00117692
-0.000138591
-0.00182726
0.00154455
-2.03504e-05
-0.000413461
0.00173954
4.616e-05
0.000192308
0.00169852
1.26701e-05
0.000558513
0.00155776
2.76457e-05
0.000793007
0.00134564
0.000175216
0.000930419
0.00106196
0.000460869
0.00095425
0.000875304
0.000725737
0.000851094
0.000940222
0.000868734
0.000726666
0.00112802
0.000940417
0.000588279
0.0012734
0.00100568
0.000349387
0.00135231
0.0010909
-2.66771e-05
0.00144522
0.00115494
-0.000452502
0.00165112
0.000944695
-0.00142973
0.00187298
0.000462311
-0.00330062
0.00180208
-7.79076e-06
-0.00619216
0.00119711
-0.00919732
-0.000217217
0.00040616
-0.00791092
-0.0014133
9.26267e-05
-0.0058579
9.26267e-05
-0.000394118
-0.00376775
0.000836402
-0.000581055
-0.00212393
0.00119507
-0.000537354
-0.0010495
0.00130175
-0.000418811
-0.000511142
0.00128456
-0.000271397
-0.000128439
0.00123732
-9.21789e-05
0.000155667
0.00113288
0.000149083
0.000363059
0.000974111
0.000437037
0.00048324
0.000854274
0.000722416
0.000354458
0.000867467
0.000953674
0.000167058
0.000957442
0.00114049
-1.84281e-05
0.00103643
0.0013488
-0.000320908
0.00105204
0.00148042
-0.00065834
0.00107837
0.00150137
-0.00107819
0.00121857
0.00124535
-0.00189309
0.00141146
0.000728115
-0.00338161
0.00132528
0.000158662
-0.0057112
0.000764778
-0.00830038
-0.000633707
-0.000101028
-0.00670578
-0.00189939
-0.000566665
-0.00492663
-0.000566665
-0.00107355
-0.00338576
0.000118687
-0.00128555
-0.00231541
0.000330244
-0.00123473
-0.00163467
0.000354987
-0.00103273
-0.00127467
0.000285715
-0.000696627
-0.00104381
0.00024179
-0.000299569
-0.000842087
0.000265371
9.43513e-05
-0.000641507
0.000324921
0.000450446
-0.000473427
0.000417314
0.00080149
-0.000580581
0.000364833
0.00117693
-0.000779752
0.00025455
0.00156249
-0.000954945
0.000163914
0.00187388
-0.00113939
0.000108518
0.00208457
-0.00135339
0.000124764
0.00212252
-0.00164305
0.000265146
0.00185566
-0.00219398
0.000448288
0.00128383
-0.0032058
0.000417635
0.000507046
-0.00485676
9.31945e-06
-0.0068931
-0.00118037
-0.000987243
-0.00441805
-0.00270492
-0.00186617
-0.00316877
-0.00186617
-0.00239508
-0.00237186
-0.0015043
-0.00249048
-0.001951
-0.00144581
-0.00227238
-0.00172488
-0.00147376
-0.00186247
-0.00161425
-0.00155469
-0.00129962
-0.00152207
-0.00166635
-0.000658617
-0.00140847
-0.00169512
-2.40492e-05
-0.00123194
-0.00162516
0.000510154
-0.000990986
-0.00139711
0.00105441
-0.00110955
-0.00143856
0.00162385
-0.00130897
-0.00158469
0.00216111
-0.00141677
-0.00166255
0.00262625
-0.0014945
-0.00168191
0.00299276
-0.00156664
-0.00166421
0.003164
-0.00166632
-0.00153077
0.00302088
-0.00187111
-0.00137449
0.00241279
-0.00228229
-0.0013014
0.0013129
-0.003105
-0.0014817
-0.00445861
-0.00206736
-0.00281771
-0.00415798
-0.0044021
-0.0044021
-0.00511032
-0.00498823
-0.00524999
-0.00562558
-0.00496943
-0.00628302
-0.00436579
-0.00690498
-0.00348861
-0.00742231
-0.0023531
-0.00782665
-0.000966749
-0.00801833
0.000612584
-0.00776525
0.00202953
-0.0076384
0.00322003
-0.00767511
0.00419803
-0.00744278
0.00495047
-0.0070643
0.00545319
-0.00658439
0.00566191
-0.00602043
0.00547412
-0.00538924
0.00471054
-0.00472177
0.00302094
-0.00403723
-0.00354421
0.00227121
-0.00251415
0.0051846
0.00364016
-0.00164402
0.00478187
0.00384131
-0.000402311
0.00384131
0.00276509
0.00109109
0.00266725
0.000694907
0.00218487
0.00170534
-0.000255395
0.0011244
0.000748992
-0.000136855
-0.000193179
0.000317111
1.63298e-05
-0.000267449
-8.09118e-05
0.00011908
-0.000189142
-0.000179651
0.000113627
-0.00015423
1.03794e-05
9.1325e-05
-0.000148177
0.000131571
0.000164177
-0.000233193
0.000310809
0.000262619
-0.000339852
0.000499818
-0.000848802
0.000827318
0.00154564
-0.00301908
0.00200752
0.00200387
-0.00472493
0.0013907
0.00237636
-0.00551863
0.000205635
0.00307028
-0.00520218
-0.00116192
0.00386526
-0.00348318
-0.00271378
0.00455773
-0.0044156
0.00479202
0.00118768
-0.00396538
0.00270459
0.0021051
-0.00290005
0.00288766
0.00241059
-0.00101328
0.00241059
0.00202546
0.00116068
0.00173649
0.0015256
0.00245088
0.00142397
0.000965399
0.00145207
0.00125123
0.000426087
0.000255449
0.000527415
6.15792e-05
-4.73323e-05
-0.000157536
-0.000268196
-4.25649e-06
-0.000546735
-0.000548334
-1.99036e-05
-0.000460515
-0.00071991
-0.000195296
-0.000227527
-0.000807952
-0.000401627
0.000168678
-0.00107774
-0.000339502
0.00064932
-0.00138237
0.000752622
0.0010744
-0.00181282
0.00224572
0.0014714
-0.00261961
0.00198027
0.00148612
-0.00331913
0.000533513
0.00175573
-0.00313783
-0.00179476
0.00235466
-0.00200426
-0.00431972
0.00267423
-0.00665601
0.00232527
0.000908289
-0.0048689
0.000825705
0.00153084
-0.00373411
0.00170795
0.0019358
-0.00182321
0.0019358
0.00203385
0.000642143
0.00167251
0.00197742
0.00212022
0.00148281
0.00158943
0.00156259
0.00131979
0.00100392
0.00071235
0.000902288
0.000521813
0.00037363
0.000308271
8.93078e-05
0.00034087
-0.000326104
-0.000318652
0.000275414
-0.000466256
-0.000687411
5.30918e-05
-0.000211412
-0.00101607
-0.000179801
0.000193613
-0.00136015
-0.000142236
0.000553101
-0.00148216
0.000571324
0.000891637
-0.001331
0.00187407
0.0012596
-0.00153372
0.00204076
0.00132944
-0.00181751
0.000685308
0.00158006
-0.00180321
-0.00198604
0.00194049
-0.00120878
-0.0050535
0.00185211
-0.00761989
0.000873333
0.000970269
-0.00560251
-0.000359161
0.00141773
-0.00414575
0.000928713
0.00166078
-0.0023093
0.00166078
0.00191239
6.90656e-05
0.00176617
0.00209123
0.00162896
0.00167836
0.00188344
0.00155469
0.00156082
0.00138325
0.00111243
0.00128255
0.000876872
0.000869252
0.000821051
0.000527017
0.000743033
0.000145699
0.00022001
0.000644317
-0.000249273
-0.00020177
0.000547869
-4.47147e-05
-0.000722002
0.000455304
0.000436624
-0.00117542
0.000445193
0.000764217
-0.00129765
0.000662701
0.000968789
-0.00095217
0.00141729
0.00125575
-0.000734795
0.00180478
0.00148415
-0.000823175
0.000770532
0.00186263
-0.00101774
-0.00191926
0.00206686
-0.0008253
-0.0052248
0.00154096
-0.00790496
1.55206e-05
0.000999966
-0.0062108
-0.00108464
0.00134234
-0.0042105
0.00037916
0.00137903
-0.00238269
0.00137903
0.00150395
-0.000236653
0.00182581
0.0016912
0.00128753
0.00191669
0.0015613
0.00154953
0.00184538
0.00118095
0.00141988
0.00162053
0.000776242
0.00129345
0.00122125
0.000537619
0.00114498
0.000625524
0.00045995
0.00102928
0.000182916
0.000305325
0.00100335
0.000336273
-5.90719e-05
0.00103368
0.000794242
-0.000458175
0.00102002
0.00109658
-0.000647016
0.000980428
0.00122377
-0.000439783
0.00122657
0.00140854
-0.000166212
0.00151296
0.00173658
-0.000194697
0.000673467
0.00217898
-0.000553167
-0.00176436
0.00219929
-0.000618448
-0.00507078
0.00134328
-0.0078835
-0.000491641
0.000901658
-0.00658258
-0.00159084
0.00117692
-0.00405474
-1.63875e-05
0.00107795
-0.00218475
0.00107795
0.00101707
-0.000287678
0.00165645
0.00107496
0.00107581
0.00189337
0.000976807
0.00147605
0.00187015
0.000744085
0.00150991
0.00170045
0.000515954
0.00146417
0.00140304
0.000406161
0.00135839
0.000958338
0.00044106
0.00128082
0.000588865
0.000466376
0.00127543
0.000642826
0.000348367
0.00129908
0.000980623
0.000173421
0.00126545
0.00120291
6.13854e-05
0.00113728
0.0013075
0.000143379
0.00112925
0.00146054
0.000297096
0.00121483
0.00179554
0.000189651
0.000454901
0.00219899
-0.000267426
-0.00159998
0.00209477
-0.000462773
-0.00471666
0.00103833
-0.00765699
-0.000906505
0.000636652
-0.00658416
-0.00204837
0.000836402
-0.00376775
-0.000394118
0.000700201
-0.00191235
0.000700201
0.000531118
-0.000158641
0.00123511
0.000516718
0.000900467
0.00149149
0.000484863
0.00128343
0.00150902
0.000416876
0.00138522
0.00142999
0.000354198
0.00139606
0.00126366
0.000345977
0.00135214
0.000988585
0.000417979
0.00133576
0.000727329
0.000518886
0.00132911
0.000712873
0.000550569
0.00131318
0.000911652
0.000541885
0.00124646
0.0010641
0.000536873
0.00109375
0.00110057
0.000584347
0.000979332
0.00118081
0.000654328
0.000910069
0.00145334
0.000475987
0.000243586
0.00180111
6.11158e-06
-0.00148755
0.00168272
-0.000183009
-0.00424796
0.000485194
-0.00712383
-0.00134988
-6.2034e-06
-0.00585436
-0.00262298
0.000118687
-0.00338576
-0.00107355
-8.04556e-05
-0.00151407
-8.04556e-05
-4.48238e-05
-0.000301599
0.000437567
4.01371e-05
0.000496535
0.000673953
0.000133587
0.000804383
0.000671312
0.000212814
0.000913187
0.000634591
0.000297109
0.000979316
0.000597817
0.000381912
0.00104994
0.000542312
0.000439743
0.00119
0.000505235
0.000521031
0.00114855
0.000464104
0.00063341
0.000989707
0.000465639
0.000724654
0.000862149
0.000456975
0.000829586
0.000691039
0.000406296
0.000947416
0.000534161
0.000452101
0.0010432
0.000389655
0.000689772
0.000995721
-0.000190061
0.000929409
0.000662857
-0.00137967
0.000642615
0.000316903
-0.00348095
-0.000411737
-0.00607498
-0.00191232
-0.00101931
-0.00406861
-0.00347136
-0.0015043
-0.00237186
-0.00239508
-0.00161203
-0.00129862
-0.00161203
-0.00141638
-0.000675985
-0.00126707
-0.000966808
-0.0002389
-0.0011879
-0.000536597
-1.26201e-05
-0.0011679
-0.000172856
0.000104792
-0.00122169
0.00013753
0.000218032
-0.00124423
0.000363248
0.000397055
-0.001198
0.000508754
0.000683102
-0.00103572
0.000689633
0.000580396
-0.00105129
0.000925251
0.000325095
-0.0011557
0.00119486
0.000172907
-0.00124292
0.00148399
3.90957e-05
-0.0013191
0.00181086
-0.000124172
-0.00133275
0.00214209
-0.000297993
-0.00117436
0.00221635
-0.00064355
-0.000995263
0.00198731
-0.00124382
-0.00120821
0.00124882
-0.0023475
-0.00187665
-0.00409272
-0.00280081
-0.00332458
-0.00490201
-0.00498823
-0.00511032
-0.00563754
-0.00563754
-0.00570249
-0.00623662
-0.00536163
-0.00686278
-0.00473285
-0.00754639
-0.0038491
-0.00820127
-0.00269162
-0.0087661
-0.00122073
-0.00909217
0.000586465
-0.00888935
0.00222811
-0.00869966
0.00352915
-0.00865105
0.00453866
-0.00827939
0.00527441
-0.00776094
0.00574647
-0.00718063
0.00597408
-0.00654604
0.00584665
-0.00590536
0.00514065
-0.00525959
0.00340212
-0.00464621
-0.00423481
0.0017207
-0.000341333
0.00380523
0.00268213
0.000200459
0.00361997
0.00266725
0.00109109
0.00276509
0.00170013
0.00193424
0.00170013
4.57854e-05
0.00239589
0.000963796
-0.000284325
0.000502057
0.000577046
8.86267e-05
-0.000321308
0.000265465
0.000116267
-0.000309399
0.000200849
3.32071e-05
-0.000199431
0.000102835
-0.000214885
-0.000134121
0.000392583
-0.000349432
-0.000239654
0.000505763
-0.000156303
-0.00044159
0.000559265
3.06224e-05
-0.000435091
0.000747994
-0.000967444
0.00115448
0.00138921
-0.00262878
0.00211347
0.00155173
-0.00397653
0.00167414
0.00204997
-0.00464461
0.000773115
0.00296523
-0.00434332
-0.00044482
0.00400879
-0.00286463
-0.00169168
0.00477071
-0.00298126
0.00490864
0.000759838
-0.000382341
0.00198576
0.00142096
0.000178052
0.00224895
0.00173649
0.00116068
0.00202546
0.00156521
0.0022768
0.00156521
0.0014164
0.00260095
0.00136772
0.000866835
0.00113398
0.00116887
0.000471735
5.5321e-05
0.000545882
6.32389e-05
-0.000174883
0.000116441
-0.000457403
-6.91933e-05
-0.000156334
-0.00086271
-0.000175208
-1.41227e-05
-0.00104864
-0.00047021
0.000188959
-0.00111339
-0.000661783
0.000453621
-0.00139247
-0.000294159
0.000787473
-0.00153704
0.0011069
0.00126655
-0.00189157
0.00250417
0.00143523
-0.00251668
0.00232814
0.00145722
-0.00295577
0.00113915
0.00182879
-0.00273005
-0.000737379
0.00242149
-0.00167943
-0.00278551
0.00271743
-0.00453832
0.0022029
0.000728712
-0.00139893
0.00111358
0.00125203
-0.000455842
0.00181852
0.00167251
0.000642143
0.00203385
0.00184008
0.00194167
0.00184008
0.00186109
0.00239622
0.00166652
0.00148653
0.00144505
0.00138328
0.000949278
0.000558622
0.000936235
0.000437923
0.00022062
0.000424119
-0.000128124
0.000228726
-5.79803e-05
-0.00067656
3.55151e-05
-0.000128544
-0.00105434
-0.000398172
9.43268e-05
-0.00136458
-0.000565723
0.000407795
-0.0016499
-0.000211805
0.000756077
-0.00171217
0.000913939
0.00114686
-0.0016687
0.00232618
0.00139412
-0.00189858
0.00247692
0.00141053
-0.0020802
0.00126534
0.00163548
-0.00183011
-0.000960713
0.00191373
-0.00112102
-0.0033328
0.00169031
-0.00531826
0.000532251
0.00109859
-0.00305058
0.000193893
0.0014447
-0.00107981
0.00120656
0.00176617
6.90656e-05
0.00191239
0.00203679
0.00140043
0.00203679
0.00212912
0.00205315
0.0019291
0.00184847
0.00159386
0.00169267
0.00134009
0.00100893
0.00134062
0.000822417
0.000696529
0.00086281
0.000372304
0.000574696
0.000249838
-0.000197556
0.000430173
-7.40737e-05
-0.000802529
6.58112e-05
9.62745e-05
-0.00129116
-9.389e-05
0.000453423
-0.0016258
8.09096e-05
0.000806146
-0.00164848
0.000770405
0.001135
-0.00141949
0.00195138
0.00140156
-0.00136139
0.00237801
0.00152495
-0.00140766
0.00139467
0.00177957
-0.00130213
-0.000908112
0.00190873
-0.000893364
-0.00347429
0.00127367
-0.0058639
-0.000332205
0.00126893
-0.00429564
-0.00110851
0.00164501
-0.00150634
0.000429619
0.00182581
-0.000236653
0.00150395
0.00199882
0.0010544
0.00199882
0.00207071
0.00182069
0.00207725
0.00184844
0.00172417
0.00193734
0.00142236
0.00139843
0.00165711
0.00096599
0.00114856
0.00122558
0.000598183
0.00095198
0.000616044
0.000257893
0.000790458
0.000162916
-0.000239904
0.000633034
0.000266845
-0.000776944
0.000545101
0.000692289
-0.00117625
0.000558643
0.00101815
-0.00127814
0.000851386
0.00124468
-0.00104355
0.00164858
0.00147674
-0.000839372
0.00219996
0.00171046
-0.000821443
0.00150678
0.00204893
-0.000878768
-0.000699882
0.00204838
-0.000731146
-0.00334989
0.00107125
-0.00626592
-0.000820771
0.00110143
-0.00523311
-0.00175481
0.00154455
-0.00182726
-0.000138591
0.00165645
-0.000287678
0.00101707
0.00169751
0.000972265
0.00169751
0.00171616
0.00172576
0.00196964
0.00155479
0.00180467
0.00195102
0.00125131
0.00163631
0.00176605
0.000914068
0.00145494
0.00143389
0.000619992
0.00126789
0.000936503
0.000377277
0.00113173
0.000490309
7.19272e-05
0.00106283
0.000518372
-0.000299851
0.00102475
0.000872746
-0.000612133
0.000953703
0.00112013
-0.000740419
0.000998782
0.00128839
-0.000579123
0.00145661
0.00149122
-0.000348247
0.00197924
0.00178537
-0.000298248
0.00150184
0.00215392
-0.000505423
-0.00042723
0.00202929
-0.000526382
-0.00309291
0.000802298
-0.00646041
-0.0012384
0.000711461
-0.00571666
-0.00227628
0.00119507
-0.00212393
-0.000581055
0.00123511
-0.000158641
0.000531118
0.00121433
0.00101382
0.00121433
0.00124889
0.00160166
0.00158102
0.00120033
0.00169541
0.00166683
0.00106021
0.00160357
0.00160285
0.000869131
0.00149104
0.00141864
0.000650755
0.00137719
0.00109765
0.0004317
0.00132127
0.000756834
0.000233806
0.00127659
0.00069701
-3.68673e-07
0.00121206
0.00095852
-0.000211903
0.00109187
0.00113747
-0.000314595
0.0010043
0.00119775
-0.000183228
0.0011998
0.00130625
5.38225e-05
0.00161303
0.0015825
0.000146764
0.00129277
0.00191724
-0.000137136
-0.000161455
0.00170084
-0.000165908
-0.00286454
0.000285589
-0.00628144
-0.00169476
-7.3228e-05
-0.0053909
-0.00287552
0.000330244
-0.00231541
-0.00128555
0.000437567
-0.000301599
-4.48238e-05
0.000534754
0.000819437
0.000534754
0.000696082
0.00124971
0.000864575
0.000817055
0.0012865
0.000959249
0.000867392
0.00123025
0.000957564
0.000855221
0.00119418
0.000906839
0.000752442
0.00121029
0.000811992
0.00051365
0.00135203
0.000713269
0.000302665
0.00130663
0.000645038
0.000195479
0.00110717
0.000677708
0.000119098
0.000945184
0.000680034
9.66375e-05
0.000792639
0.000640414
0.000226552
0.00080903
0.000712955
0.000492262
0.00106972
0.000967368
0.00063125
0.000870051
0.00121313
0.000560204
-0.000312896
0.000865097
0.00039163
-0.00252248
-0.000585226
-0.00557159
-0.00223055
-0.0011768
-0.00397977
-0.00370569
-0.00144581
-0.001951
-0.00249048
-0.00126707
-0.000675985
-0.00141638
-0.000911291
0.000107872
-0.000911291
-0.000496748
0.000380377
-0.000733115
-0.000112359
0.000467478
-0.000733269
0.00018881
0.000532904
-0.000825518
0.000419235
0.00065157
-0.000932041
0.00055759
0.000860331
-0.000986399
0.000557761
0.00123369
-0.000917556
0.000630788
0.00112111
-0.000938792
0.000776268
0.000770991
-0.000965001
0.000930329
0.000564737
-0.00101654
0.00105749
0.000407737
-0.00106136
0.00121855
0.000297552
-0.000982333
0.00154796
0.000274058
-0.000708115
0.00183423
9.8781e-05
-0.000510267
0.00187546
-0.000653725
-0.000908607
0.00135349
-0.00193034
-0.00194683
-0.00395306
-0.00306585
-0.00381425
-0.00506753
-0.00562558
-0.00524999
-0.00623662
-0.00570249
-0.00618269
-0.00618269
-0.00581759
-0.0068475
-0.0052445
-0.007652
-0.00441157
-0.00850131
-0.00322844
-0.00929766
-0.00159751
-0.00986277
0.000586254
-0.00983943
0.00256741
-0.00955971
0.00401012
-0.00932277
0.00502794
-0.00873248
0.00568815
-0.00801342
0.00607096
-0.0072659
0.00629083
-0.00649185
0.00626832
-0.00578407
0.00560975
-0.00525475
0.00378051
-0.00474731
-0.00440737
0.00128052
0.00153152
0.000993181
0.00182002
0.00181568
0.00126479
0.00170534
0.00218487
0.000694907
0.000963796
0.00239589
4.57854e-05
2.77816e-05
0.00187203
2.77816e-05
0.000123219
-4.43645e-05
0.00052597
0.000400701
-0.000391607
0.000379589
0.000348959
-0.000336495
0.000589089
5.40319e-05
-0.000222669
0.000620429
-0.000382866
-0.000142832
0.000972303
-0.000630697
-0.00033743
0.00109102
-0.000489804
-0.000610815
0.00102919
-0.000258941
-0.000531493
0.00104863
-0.00084563
0.000958525
0.00101737
-0.00187809
0.00211394
0.000470253
-0.00289654
0.00207939
0.000989022
-0.00346489
0.00152159
0.00201199
-0.00333657
0.000630672
0.00324979
-0.00221524
-0.000382139
0.00403151
-0.00134562
0.00403901
0.000702915
0.00185905
0.000955318
0.00119012
0.00208261
0.00149481
0.00142397
0.00245088
0.0015256
0.00136772
0.00260095
0.0014164
0.00135494
0.00189759
0.00135494
0.000957513
0.000530738
0.000991194
0.000663524
-0.000244768
0.000693027
0.000192771
-0.000279827
0.000530523
-0.000506189
-0.000102163
0.000422118
-0.00100741
-0.000235246
0.000579512
-0.00121632
-0.000624423
0.000684864
-0.00127374
-0.000868474
0.000768699
-0.0014575
-0.000497952
0.000937697
-0.00148959
0.000875014
0.00138214
-0.00170925
0.00235944
0.0014094
-0.00209669
0.00265498
0.00126906
-0.00233799
0.00198514
0.00160654
-0.00211235
0.000690557
0.00213596
-0.00129929
-0.000854125
0.00237635
-0.00239559
0.00195358
0.000639913
0.00104184
0.00129087
0.00109572
0.00165289
0.00179244
0.00148281
0.00212022
0.00197742
0.00166652
0.00239622
0.00186109
0.00165121
0.00192821
0.00165121
0.00133387
0.000911047
0.0013203
0.000877253
0.000197943
0.000950138
0.000368757
2.95181e-05
0.000623265
-0.000265366
0.000128436
0.000345541
-0.000847381
-0.000111124
0.000329348
-0.00120884
-0.000606329
0.000437692
-0.00147539
-0.000801695
0.000607566
-0.00170576
-0.00039224
0.000880743
-0.0017492
0.000790899
0.00127441
-0.00175631
0.00225653
0.00150412
-0.00193314
0.00273075
0.00151158
-0.00202142
0.00201479
0.00169411
-0.0017015
0.000396026
0.00188834
-0.00102988
-0.00141162
0.00157618
-0.0033312
0.000437976
0.00110647
-0.00096287
0.00109213
0.00136594
0.000912017
0.00168796
0.00167836
0.00162896
0.00209123
0.0019291
0.00205315
0.00212912
0.00194894
0.00188851
0.00194894
0.00166421
0.00124008
0.00164836
0.00119753
0.000705038
0.0013002
0.000707757
0.000471215
0.000910882
0.00017248
0.000444061
0.000469486
-0.000481213
0.000236998
0.000231496
-0.00104917
-0.000272213
0.000330113
-0.00148232
-0.000478648
0.000563526
-0.00176853
-0.000176588
0.000876705