/*--------------------------------*- C++ -*----------------------------------*\
  =========                 |
  \\      /  F ield         | OpenFOAM: The Open Source CFD Toolbox
   \\    /   O peration     | Website:  https://openfoam.org
    \\  /    A nd           | Version:  8
     \\/     M anipulation  |
\*---------------------------------------------------------------------------*/
FoamFile
{
    version     2.0;
    format      ascii;
    class       volVectorField;
    location    "1800";
    object      U;
}
// * * * * * * * * * * * * * * * * * * * * * * * * * * * * * * * * * * * * * //

dimensions      [0 1 -1 0 0 0 0];

internalField   nonuniform List<vector> 
4000
(
(0.00789127 -0.0243837 0.00789127)
(0.0163262 -0.017534 0.00739271)
(0.0207821 -0.0109297 0.00624611)
(0.0201996 -0.00481569 0.00521264)
(0.0125142 0.00122842 0.00420916)
(-0.00327943 0.00124656 0.00207998)
(-0.00214812 -0.000697379 -0.000271369)
(-0.00186463 -0.00113418 -0.000694515)
(0.00044437 -0.00114294 -0.000769545)
(0.00138259 -0.00115747 -0.000572872)
(0.00254921 -0.00122467 -0.00039416)
(0.00385838 -0.00128756 -0.000130127)
(0.00267065 -0.00115285 -7.80719e-05)
(0.00648062 -0.000382149 0.00118476)
(-0.00345988 0.00342255 0.00339651)
(-0.016669 8.71648e-05 0.00371966)
(-0.0237243 -0.00427162 0.00401645)
(-0.02446 -0.00905439 0.00460282)
(-0.0196548 -0.015111 0.00514056)
(-0.00972925 -0.0230354 0.00550239)
(0.00336678 -0.0334601 0.00336678)
(0.00811974 -0.023423 0.0035324)
(0.0101373 -0.0123293 0.00294589)
(0.0104416 0.000775367 0.00198514)
(0.00739098 0.00873917 0.00217083)
(0.000888463 0.00445904 0.00171229)
(6.49049e-05 -0.000147763 -0.00033684)
(-0.00173003 -7.68907e-05 -0.00160895)
(4.42995e-05 -4.50926e-06 -0.00200261)
(0.000768364 -2.40938e-05 -0.00165576)
(0.00138958 2.17831e-05 -0.00138041)
(0.00186329 8.77561e-05 -0.000949463)
(0.000575585 5.03731e-05 -0.000354598)
(-0.00109029 -0.000225294 -0.000294851)
(-0.0005223 0.00668333 0.00247952)
(-0.00546991 0.0073793 0.00252169)
(-0.010263 0.00156067 0.00243923)
(-0.0110851 -0.00880285 0.00322844)
(-0.00942228 -0.0196031 0.00331452)
(-0.00344877 -0.0324814 0.00333172)
(0.00141758 -0.0419678 0.00141758)
(0.00334416 -0.030892 0.00216982)
(0.00269277 -0.0180078 0.00219304)
(0.00373134 -0.00296795 0.00210158)
(0.00599897 0.007286 0.00189447)
(0.00436982 0.00402936 0.00177977)
(0.00345562 0.00146304 0.00151487)
(-0.000168828 0.000779273 0.000298557)
(0.000377849 0.000621481 -0.00137704)
(0.00132853 0.000660323 -0.00141015)
(0.0020767 0.000487049 -0.000799765)
(0.00205302 0.000563656 0.000107137)
(0.000976946 0.000898699 0.0011073)
(-0.00275448 0.000217067 0.000702696)
(-0.00131056 0.0030521 0.0020706)
(-0.00130843 0.00622376 0.00264311)
(0.000725589 -0.00122404 0.00363091)
(-0.000518579 -0.0137116 0.00339278)
(-0.00220138 -0.0267661 0.00275746)
(-0.000343561 -0.0411761 0.00238865)
(0.000478224 -0.0448399 0.000478224)
(0.000659357 -0.033602 0.00165)
(-0.00169365 -0.020826 0.00211508)
(-0.00150279 -0.00892908 0.00295793)
(0.00342262 0.00179428 0.00343511)
(0.00486718 0.00143041 0.0034597)
(0.00477645 0.00131466 0.00335845)
(0.00299345 0.00187184 0.00268726)
(0.00169719 0.00183307 0.00140808)
(0.001937 0.00178802 0.000781406)
(0.0025356 0.00163952 0.00135863)
(0.0024922 0.00145112 0.00236545)
(0.00189083 0.00173375 0.00322785)
(0.000281137 0.000590605 0.0033448)
(0.000743435 -0.00244943 0.00334753)
(0.00271194 -0.00261134 0.0039388)
(0.00488644 -0.00825738 0.00392362)
(0.00478887 -0.017299 0.00313949)
(0.00198859 -0.0296456 0.00244025)
(0.00126219 -0.0440416 0.00190137)
(-0.000144122 -0.0450219 -0.000144122)
(-0.00097963 -0.0345336 0.00126569)
(-0.00434425 -0.0238339 0.00166136)
(-0.00469338 -0.0150432 0.00249021)
(-0.00359561 -0.00911023 0.00335191)
(-0.00177551 -0.00626066 0.00355698)
(-0.00119868 -0.00426357 0.00358001)
(-0.000746796 -0.00272826 0.00351853)
(-3.70354e-05 -0.00155337 0.00338633)
(0.00108701 -0.00121906 0.00340857)
(0.00215164 -0.00253678 0.00345015)
(0.00325292 -0.00383904 0.00345623)
(0.00423411 -0.00489642 0.00346639)
(0.00523678 -0.00600248 0.00334685)
(0.00613181 -0.00780829 0.00303077)
(0.00721417 -0.0101184 0.00287908)
(0.00782647 -0.0145182 0.00258047)
(0.00736858 -0.0216622 0.00211921)
(0.00403995 -0.0318283 0.00186318)
(0.0021955 -0.0444907 0.00146702)
(-0.000729317 -0.0435866 -0.000729317)
(-0.00204557 -0.0346339 0.000723579)
(-0.00609924 -0.0261005 0.000673539)
(-0.00694261 -0.0196687 0.000841981)
(-0.00686695 -0.0151902 0.000954617)
(-0.00586661 -0.0128244 0.00101375)
(-0.00462835 -0.0111582 0.0010117)
(-0.00303925 -0.00977351 0.00106246)
(-0.00128155 -0.00858536 0.00119082)
(0.000951573 -0.00812663 0.00144176)
(0.00274095 -0.00938864 0.0011853)
(0.00458136 -0.0105986 0.000893643)
(0.0062776 -0.0116278 0.000697365)
(0.00781237 -0.0127499 0.000592307)
(0.00906478 -0.0142209 0.000540769)
(0.00992204 -0.016141 0.00056554)
(0.00993464 -0.0194836 0.000644526)
(0.00902671 -0.0248182 0.000726126)
(0.00510322 -0.0328429 0.00100535)
(0.00280821 -0.043409 0.000907369)
(-0.00148616 -0.040585 -0.00148616)
(-0.0031104 -0.0333841 -0.000169887)
(-0.00773709 -0.0271156 -0.000732185)
(-0.00896763 -0.0228582 -0.00117172)
(-0.00910906 -0.0200848 -0.00162279)
(-0.00808189 -0.018455 -0.00199721)
(-0.00638935 -0.0172644 -0.00230286)
(-0.00420746 -0.0161672 -0.00247726)
(-0.00178381 -0.0150748 -0.00248823)
(0.00100443 -0.0145467 -0.00221228)
(0.00319123 -0.0155943 -0.00236715)
(0.00537757 -0.0166262 -0.00259201)
(0.00751013 -0.0174738 -0.00267007)
(0.00942321 -0.0182652 -0.00257688)
(0.0109734 -0.019187 -0.00233721)
(0.0119158 -0.020479 -0.00197761)
(0.0117916 -0.0226923 -0.0014701)
(0.0105288 -0.0263555 -0.000884565)
(0.00603468 -0.0322789 -0.000125782)
(0.00348564 -0.0405304 9.08839e-05)
(-0.00276094 -0.0349584 -0.00276094)
(-0.00481282 -0.0296487 -0.00177796)
(-0.00986505 -0.0256455 -0.00266988)
(-0.0113851 -0.0232589 -0.00352858)
(-0.0114934 -0.0218203 -0.00430947)
(-0.0102218 -0.0210287 -0.00494438)
(-0.00801426 -0.0204807 -0.00547086)
(-0.00518822 -0.0199396 -0.00588634)
(-0.00209851 -0.0192732 -0.00613398)
(0.00102597 -0.018872 -0.00593541)
(0.00347501 -0.0195044 -0.00592513)
(0.00597476 -0.0200853 -0.00595307)
(0.00862318 -0.0204619 -0.00580208)
(0.0110291 -0.0207618 -0.00549323)
(0.0129575 -0.0211165 -0.00507035)
(0.0141145 -0.0217337 -0.00451375)
(0.0140298 -0.0229553 -0.00377622)
(0.0124987 -0.0251144 -0.00286785)
(0.00754655 -0.0289645 -0.00174557)
(0.00461396 -0.0348389 -0.00127006)
(-0.0050043 -0.0258433 -0.0050043)
(-0.00798826 -0.0221566 -0.00476274)
(-0.0131445 -0.0200548 -0.00585363)
(-0.0147682 -0.0192699 -0.00698423)
(-0.0147172 -0.0190735 -0.00797522)
(-0.0131456 -0.0191816 -0.00878204)
(-0.0104506 -0.0193266 -0.00942858)
(-0.00694385 -0.0193445 -0.00989642)
(-0.00298568 -0.0190927 -0.0100875)
(0.000859639 -0.0187924 -0.00957297)
(0.00409332 -0.019076 -0.00951904)
(0.00716104 -0.019356 -0.00967832)
(0.0104743 -0.0193712 -0.00953991)
(0.0134153 -0.0192103 -0.00918693)
(0.0157309 -0.0189757 -0.00867309)
(0.0171369 -0.0188152 -0.00796812)
(0.0171706 -0.0189442 -0.0070391)
(0.015516 -0.0196512 -0.00588302)
(0.0103554 -0.0216774 -0.00451522)
(0.00665419 -0.0256496 -0.00358801)
(-0.00868144 -0.0157756 -0.00868144)
(-0.0138136 -0.0124032 -0.0100082)
(-0.0188934 -0.0108078 -0.0120376)
(-0.0203666 -0.0101833 -0.0139111)
(-0.0200033 -0.00985225 -0.01565)
(-0.0180477 -0.00958837 -0.0171725)
(-0.0148153 -0.0092392 -0.0184427)
(-0.0105223 -0.0087081 -0.0194509)
(-0.00543222 -0.00794675 -0.0199827)
(3.33611e-05 -0.00715486 -0.0192706)
(0.00549042 -0.00770813 -0.018895)
(0.00961663 -0.00832483 -0.0190122)
(0.0138948 -0.00879591 -0.0185056)
(0.017542 -0.00911277 -0.0176419)
(0.0203207 -0.00934631 -0.0165313)
(0.0220252 -0.00956987 -0.0151869)
(0.0223015 -0.00988415 -0.0135832)
(0.0207801 -0.0104878 -0.0117248)
(0.0156659 -0.0120472 -0.00949286)
(0.0101109 -0.0155556 -0.00720668)
(0.00739271 -0.017534 0.0163262)
(0.0148596 -0.0127598 0.0148596)
(0.0192998 -0.00756245 0.0120897)
(0.0186998 -0.0024761 0.00918565)
(0.011981 0.00283767 0.00650206)
(-0.000770636 0.00293536 0.00378904)
(-0.00112238 -0.00157178 0.000609061)
(-0.00109662 -0.00109739 -0.000776291)
(0.000717413 -0.000871136 -0.00102504)
(0.000843188 -0.00084756 -0.00061613)
(0.00167651 -0.000811212 -0.000237411)
(0.00217505 -0.000742608 0.000360275)
(0.001257 -0.00126017 0.00058573)
(0.00391503 0.000562187 0.00388486)
(-0.00763847 0.00428285 0.00618355)
(-0.0178153 0.00045927 0.00674499)
(-0.0239451 -0.00355549 0.00787158)
(-0.024341 -0.00793858 0.00954674)
(-0.0194015 -0.0135146 0.0112584)
(-0.0100475 -0.0206413 0.0122399)
(0.0035324 -0.023423 0.00811974)
(0.00836424 -0.0170439 0.00836424)
(0.0109746 -0.00803399 0.00683824)
(0.0111944 0.00309637 0.0044652)
(0.00857517 0.00956831 0.00383826)
(0.00356413 0.00631827 0.00336708)
(0.00295923 0.000653418 0.00160355)
(-0.000104166 -0.000600614 -0.00131147)
(0.000124182 -0.000388225 -0.00263269)
(-0.000524222 -0.000208464 -0.00231023)
(-0.000830667 -0.000233177 -0.00178166)
(-0.00107345 -0.000355701 -0.000660589)
(-0.00237779 -0.000901918 0.000931646)
(-0.00274253 0.00208639 0.00192625)
(-0.0044005 0.00884972 0.00425682)
(-0.00809969 0.00780036 0.00416645)
(-0.0122517 0.00215431 0.00444183)
(-0.0133075 -0.00716561 0.00635715)
(-0.0108819 -0.0175342 0.00743578)
(-0.00466678 -0.0291436 0.00736103)
(0.00216982 -0.030892 0.00334416)
(0.00537609 -0.0243466 0.00537609)
(0.00603881 -0.0139263 0.0053192)
(0.00733945 -0.00106762 0.00406895)
(0.00792896 0.0080061 0.00345577)
(0.00632191 0.0058081 0.00331512)
(0.00518416 0.00183781 0.00264399)
(0.00250767 0.000705147 0.000984257)
(0.00124051 0.000676989 -0.00149458)
(0.000570491 0.00084028 -0.00212386)
(2.98652e-05 0.000471416 -0.00119583)
(-0.000980898 -0.000520169 0.000353682)
(-0.00280679 -0.00134617 0.00154724)
(-0.00461649 0.000484519 0.00177452)
(-0.00361988 0.00661117 0.00347384)
(-0.00365615 0.00732625 0.00413074)
(-0.00401508 0.000691855 0.00512788)
(-0.00474254 -0.0106758 0.00643813)
(-0.0053673 -0.0239837 0.00639912)
(-0.00214903 -0.0373156 0.00494099)
(0.00165 -0.033602 0.000659357)
(0.00422586 -0.0269721 0.00422586)
(0.00334721 -0.0159851 0.00552326)
(0.00369629 -0.00293701 0.00551631)
(0.00642551 0.00575629 0.00498605)
(0.00693317 0.00515803 0.00479612)
(0.00627654 0.00343879 0.00435888)
(0.00417471 0.00280621 0.00322901)
(0.00252801 0.00255859 0.00117311)
(0.00198212 0.00253794 -0.000203083)
(0.00180056 0.00257632 0.000608554)
(0.00109805 0.0024806 0.00253903)
(-0.000989673 0.0021785 0.00395334)
(-0.00310539 0.00179192 0.00381379)
(-0.00266457 0.00330512 0.00425739)
(-0.000808628 0.00494792 0.00559086)
(0.00100471 0.00030895 0.0071134)
(0.000206895 -0.0106955 0.00727993)
(-0.00239394 -0.0257426 0.00635229)
(-0.000937412 -0.0399249 0.00365844)
(0.00126569 -0.0345336 -0.00097963)
(0.00377689 -0.0276937 0.00377689)
(0.00160975 -0.0169678 0.00582078)
(0.00110598 -0.00544947 0.00679109)
(0.00265763 0.0019335 0.00720143)
(0.00367416 0.00320323 0.00691211)
(0.00318836 0.00343562 0.00638899)
(0.00205423 0.00382292 0.00543941)
(0.00135725 0.00403209 0.00407576)
(0.00163987 0.00400076 0.00326892)
(0.00222619 0.0037043 0.00387887)
(0.00238317 0.0033619 0.00505782)
(0.00183772 0.00304754 0.00597805)
(0.00119494 0.00240154 0.00629031)
(0.00106769 0.00165936 0.00633103)
(0.0021784 0.00146856 0.00716873)
(0.00319911 -0.00286572 0.00791636)
(0.00250819 -0.0118041 0.00757925)
(-0.000941629 -0.0259926 0.00631607)
(-0.000239657 -0.0400213 0.00270706)
(0.000723579 -0.0346339 -0.00204557)
(0.00342157 -0.0270919 0.00342157)
(0.000207395 -0.0168708 0.00570314)
(-0.000426041 -0.00684736 0.00680513)
(-0.00051123 -0.000532437 0.00753173)
(0.000295667 0.0018684 0.0075195)
(0.00012196 0.00295768 0.00715149)
(5.7919e-06 0.00372336 0.00660499)
(0.000236471 0.00417774 0.00590286)
(0.00126439 0.00429333 0.0055449)
(0.00241399 0.00394991 0.00582805)
(0.00326595 0.00351053 0.00629601)
(0.00363781 0.00305117 0.00667168)
(0.0038623 0.00222237 0.00689762)
(0.00413958 0.000901761 0.00704149)
(0.00463922 -0.000841288 0.00729704)
(0.00437578 -0.00495113 0.00743274)
(0.00355484 -0.0130467 0.00704813)
(-0.000225529 -0.0255377 0.00584266)
(0.000352399 -0.0384837 0.0016524)
(-0.000169887 -0.0333841 -0.0031104)
(0.0025803 -0.0253701 0.0025803)
(-0.0015422 -0.0159797 0.00480366)
(-0.0019899 -0.00826357 0.00566122)
(-0.00240829 -0.00317064 0.00599899)
(-0.00192976 -0.000644541 0.00622224)
(-0.00134325 0.000941847 0.00645762)
(-0.00075561 0.00187078 0.00642217)
(2.35726e-05 0.0023586 0.006209)
(0.00120402 0.00234195 0.00608092)
(0.00234469 0.00194908 0.00614775)
(0.00338826 0.0015419 0.0062237)
(0.00418063 0.00105139 0.00626087)
(0.0049687 0.000165797 0.00603083)
(0.00571679 -0.00123166 0.005746)
(0.00610289 -0.00314951 0.00569032)
(0.00564548 -0.00695794 0.00582644)
(0.00470645 -0.0138336 0.00560588)
(0.000619299 -0.0243815 0.00459408)
(0.00119972 -0.0355388 0.000294622)
(-0.00177796 -0.0296487 -0.00481282)
(0.000356841 -0.0217983 0.000356841)
(-0.00418492 -0.0146989 0.00212183)
(-0.00482972 -0.00918393 0.00238536)
(-0.00515646 -0.00541047 0.00201299)
(-0.00459866 -0.00324356 0.00168602)
(-0.00352118 -0.00172322 0.00162616)
(-0.00199722 -0.000250671 0.00208368)
(-0.000381855 0.0012154 0.00283959)
(0.00115481 0.00238706 0.00368053)
(0.00247719 0.00160077 0.00331342)
(0.00392985 0.000248183 0.00238539)
(0.00550107 -0.00106931 0.00156151)
(0.00691327 -0.0023572 0.0011305)
(0.00799661 -0.00376342 0.00106832)
(0.00855443 -0.00549434 0.00144544)
(0.00814055 -0.00845939 0.00214399)
(0.00699523 -0.0135811 0.00256865)
(0.00253306 -0.0215567 0.00189032)
(0.00270487 -0.0306214 -0.00181131)
(-0.00476274 -0.0221566 -0.00798826)
(-0.00490256 -0.0164655 -0.00490256)
(-0.00924152 -0.01239 -0.00418326)
(-0.0100245 -0.0101862 -0.00453135)
(-0.00969557 -0.00901717 -0.00518596)
(-0.00835971 -0.00860821 -0.00577048)
(-0.00639628 -0.00846161 -0.00611921)
(-0.00396381 -0.00838448 -0.00610002)
(-0.00132864 -0.00816835 -0.00562803)
(0.00106506 -0.00781087 -0.00434786)
(0.0032144 -0.00799049 -0.00472739)
(0.00536343 -0.008389 -0.00557702)
(0.00762962 -0.00847314 -0.00599226)
(0.00964489 -0.00854164 -0.00608183)
(0.0113189 -0.00864253 -0.00591636)
(0.0124675 -0.0089383 -0.00536693)
(0.0126395 -0.00991011 -0.00452361)
(0.0115712 -0.0120289 -0.00377971)
(0.00693251 -0.0162053 -0.00371076)
(0.00554343 -0.0225413 -0.00547992)
(-0.0100082 -0.0124032 -0.0138136)
(-0.0147599 -0.00740365 -0.0147599)
(-0.019845 -0.00475925 -0.0170699)
(-0.0211301 -0.00338123 -0.0195005)
(-0.0207377 -0.00249129 -0.0218926)
(-0.0189106 -0.00175033 -0.024054)
(-0.0159158 -0.000929567 -0.0258318)
(-0.0118916 6.61214e-05 -0.0272111)
(-0.00689526 0.00127162 -0.0278647)
(-0.00117534 0.00262952 -0.026945)
(0.00600867 0.00193762 -0.0264884)
(0.0106273 0.000835242 -0.026658)
(0.0150296 -6.02482e-05 -0.0258943)
(0.0185286 -0.000813891 -0.0246123)
(0.0210387 -0.00152303 -0.0229802)
(0.0224966 -0.0022527 -0.021034)
(0.0226558 -0.00314171 -0.0187674)
(0.0211709 -0.00451463 -0.0162501)
(0.0158991 -0.00720861 -0.0135469)
(0.0105911 -0.0124159 -0.0114848)
(0.00624611 -0.0109297 0.0207821)
(0.0120897 -0.00756245 0.0192998)
(0.0158794 -0.00371589 0.0158794)
(0.0147295 0.000337853 0.0116022)
(0.00862041 0.0049092 0.0077905)
(-0.00237135 0.00243514 0.00375042)
(-0.000220809 -0.0019593 0.00125027)
(-0.000709043 -0.00119905 -0.00073675)
(0.000800888 -0.000881522 -0.00103486)
(0.000230928 -0.000701008 -0.000536959)
(0.00058148 -0.000525958 -6.38492e-05)
(0.000225143 -0.000995163 0.000831002)
(0.00105874 -0.0021677 0.00148662)
(0.00154671 0.00208084 0.00591968)
(-0.00858344 0.00470792 0.00811985)
(-0.0168517 0.00115986 0.00933632)
(-0.0220651 -0.00249109 0.0115147)
(-0.0222732 -0.00629574 0.0140699)
(-0.0175434 -0.0109879 0.0164316)
(-0.00934633 -0.0166755 0.0173)
(0.00294589 -0.0123293 0.0101373)
(0.00683824 -0.00803399 0.0109746)
(0.00928949 -0.00074488 0.00928949)
(0.00970749 0.00668332 0.00683357)
(0.00771209 0.0106643 0.00569757)
(0.00394335 0.00595855 0.00472522)
(0.00316183 0.000309188 0.00206234)
(0.000729219 -0.000979323 -0.00098149)
(-0.00034182 -0.000599394 -0.00267707)
(-0.00183403 -0.000431287 -0.00236551)
(-0.00253708 -0.000720791 -0.00156713)
(-0.00294583 -0.00114084 7.04141e-05)
(-0.00409196 -0.00081474 0.00209811)
(-0.00394136 0.00397675 0.00380852)
(-0.00620219 0.00967181 0.00579238)
(-0.00941812 0.00827631 0.00575453)
(-0.012777 0.0032542 0.00646609)
(-0.0134186 -0.00493656 0.00870718)
(-0.0105919 -0.0137924 0.0098539)
(-0.00467307 -0.0226706 0.00872411)
(0.00219304 -0.0180078 0.00269277)
(0.0053192 -0.0139263 0.00603881)
(0.00678754 -0.00639988 0.00678754)
(0.00835414 0.00357048 0.00598324)
(0.00838906 0.00965735 0.00536948)
(0.00704056 0.00632364 0.0048834)
(0.0055596 0.00202602 0.00347507)
(0.0029405 0.000594875 0.0011146)
(0.00124144 0.000560684 -0.00161326)
(-0.000598491 0.000232091 -0.00231505)
(-0.00205168 -0.000814108 -0.00131387)
(-0.00345143 -0.00181929 0.000405635)
(-0.00504038 -0.0015092 0.00185188)
(-0.00571403 0.00266086 0.00306554)
(-0.00536715 0.00890892 0.00478001)
(-0.00591949 0.00841535 0.00520731)
(-0.00707416 0.00183143 0.00622715)
(-0.00723961 -0.00830244 0.00765794)
(-0.00659475 -0.0194999 0.00721911)
(-0.00258143 -0.0293336 0.00372088)
(0.00211508 -0.020826 -0.00169365)
(0.00552326 -0.0159851 0.00334721)
(0.00593643 -0.00856538 0.00593643)
(0.00708639 0.00134709 0.00637889)
(0.00833103 0.00764414 0.00614069)
(0.00817373 0.00640161 0.00587036)
(0.00689293 0.00388853 0.0049948)
(0.00452795 0.00262029 0.0032846)
(0.00265124 0.00218765 0.000524123)
(0.00150785 0.00186357 -0.00116068)
(0.000139709 0.00120293 -0.000332906)
(-0.00187039 0.000497135 0.00192447)
(-0.00407227 0.000505391 0.00323328)
(-0.005319 0.00225873 0.00375521)
(-0.00453643 0.00671471 0.00487493)
(-0.00341645 0.00812521 0.00603944)
(-0.00292396 0.00339597 0.0077021)
(-0.00334394 -0.00770793 0.008338)
(-0.00461441 -0.0208118 0.0062538)
(-0.00154028 -0.0313841 0.00071525)
(0.00166136 -0.0238339 -0.00434425)
(0.00582078 -0.0169678 0.00160975)
(0.0052863 -0.00969538 0.0052863)
(0.00547178 -0.000744565 0.0070208)
(0.00659132 0.0055408 0.00746127)
(0.00681328 0.00605555 0.00723835)
(0.00573284 0.0050891 0.00646635)
(0.00388731 0.00445765 0.00498073)
(0.00244365 0.00392716 0.00267735)
(0.00194862 0.00347293 0.00100978)
(0.00164003 0.00329727 0.0016416)
(0.000665142 0.00321449 0.00354506)
(-0.00117361 0.00297645 0.00482944)
(-0.00248591 0.00306448 0.00520015)
(-0.00245635 0.00498655 0.00574012)
(-0.00116758 0.00670363 0.00713722)
(-0.000366956 0.00301018 0.00892492)
(-0.000978215 -0.00743538 0.00872424)
(-0.00364689 -0.0207794 0.00547787)
(-0.000770616 -0.0317412 -0.00141751)
(0.000673539 -0.0261005 -0.00609924)
(0.00570314 -0.0168708 0.000207395)
(0.00430717 -0.00942402 0.00430717)
(0.0040231 -0.00111521 0.00651056)
(0.00419046 0.00463776 0.00745886)
(0.00434215 0.0061184 0.00727741)
(0.00356425 0.0060711 0.00656957)
(0.00247063 0.0058239 0.00540586)
(0.00168132 0.00537866 0.00373817)
(0.00164555 0.00501898 0.00249993)
(0.00189281 0.00498699 0.00279189)
(0.00174651 0.00511427 0.00393992)
(0.00101518 0.00500622 0.00479656)
(0.00033114 0.00453442 0.00520271)
(0.000192538 0.00476897 0.00576713)
(0.000990975 0.00547304 0.00707525)
(0.00117363 0.00241321 0.00852136)
(0.000562823 -0.00683195 0.00800691)
(-0.00305459 -0.0199113 0.00421323)
(5.80524e-05 -0.0314648 -0.00313384)
(-0.000732185 -0.0271156 -0.00773709)
(0.00480366 -0.0159797 -0.0015422)
(0.00264826 -0.00845482 0.00264826)
(0.00252711 -0.00153753 0.00493467)
(0.00201158 0.00340624 0.00568991)
(0.00210176 0.00509565 0.00550004)
(0.00185471 0.00539517 0.00500602)
(0.001506 0.00525856 0.00424477)
(0.00130277 0.00484893 0.00314384)
(0.00149809 0.00459292 0.0022499)
(0.00190936 0.0045748 0.00229479)
(0.00220641 0.00460495 0.0029682)
(0.00217897 0.00441974 0.00355831)
(0.00210174 0.00384227 0.00382121)
(0.00215715 0.003554 0.00421565)
(0.0026113 0.00360692 0.00530718)
(0.00228157 0.000779392 0.00657876)
(0.0019295 -0.00631899 0.00589508)
(-0.00205061 -0.0183598 0.00202551)
(0.00124518 -0.0302051 -0.00486958)
(-0.00266988 -0.0256455 -0.00986505)
(0.00212183 -0.0146989 -0.00418492)
(-0.000732233 -0.006433 -0.000732233)
(-0.00010125 0.000611691 0.00105427)
(-0.000118637 0.00467806 0.00176164)
(0.000415059 0.00622193 0.00149091)
(0.000715777 0.00687258 0.00115964)
(0.00101441 0.00721921 0.00093874)
(0.00133896 0.00733034 0.000740665)
(0.00163615 0.0074293 0.000733004)
(0.00192732 0.00736881 0.000613509)
(0.002331 0.00722442 0.000513107)
(0.00271974 0.00683421 0.000453868)
(0.00307324 0.00609837 0.000316092)
(0.00349708 0.00533761 0.000529277)
(0.00402022 0.00457385 0.00147094)
(0.00401801 0.00163672 0.00235419)
(0.00406488 -0.00530497 0.00149616)
(0.000445274 -0.0155807 -0.00165963)
(0.00310681 -0.0268674 -0.00703394)
(-0.00585363 -0.0200548 -0.0131445)
(-0.00418326 -0.01239 -0.00924152)
(-0.00690823 -0.00698227 -0.00690823)
(-0.00617188 -0.00388712 -0.00599937)
(-0.0047023 -0.00195596 -0.00529828)
(-0.00282887 -0.00146318 -0.00502189)
(-0.00140307 -0.00148103 -0.00530109)
(-3.8066e-05 -0.00149055 -0.0053932)
(0.00108553 -0.00116317 -0.00523869)
(0.00174536 -0.000208925 -0.00476208)
(0.00239754 -0.000419805 -0.00474461)
(0.00320652 -0.00141918 -0.00506548)
(0.00425245 -0.00183764 -0.00534251)
(0.00529919 -0.00219977 -0.00556016)
(0.00653341 -0.00241602 -0.00580986)
(0.00784432 -0.00252711 -0.00558529)
(0.00881476 -0.00384046 -0.00545275)
(0.00904609 -0.00680078 -0.00572022)
(0.00581397 -0.0123665 -0.00740589)
(0.00621652 -0.0204024 -0.0105079)
(-0.0120376 -0.0108078 -0.0188934)
(-0.0170699 -0.00475925 -0.019845)
(-0.022124 -0.00170363 -0.022124)
(-0.0230419 -7.452e-05 -0.0246463)
(-0.0223566 0.00104935 -0.0272236)
(-0.020422 0.00202585 -0.0297846)
(-0.0174041 0.00310543 -0.0320117)
(-0.0133602 0.00438775 -0.0338219)
(-0.00813183 0.0058777 -0.0346775)
(-0.0019624 0.00757248 -0.0335543)
(0.00657061 0.00682229 -0.033004)
(0.0117098 0.00539486 -0.0331739)
(0.0163914 0.0042044 -0.0321104)
(0.0199095 0.00316951 -0.0304358)
(0.0222801 0.0021689 -0.0283764)
(0.0236431 0.00117475 -0.0260233)
(0.0239574 3.55183e-05 -0.0234791)
(0.0228005 -0.00159179 -0.0207994)
(0.0175957 -0.00469149 -0.0181467)
(0.0121705 -0.0107699 -0.0162993)
(0.00521264 -0.00481569 0.0201996)
(0.00918565 -0.0024761 0.0186998)
(0.0116022 0.000337853 0.0147295)
(0.0099378 0.00366269 0.0099378)
(0.00441404 0.00679239 0.00611038)
(-0.00389437 -0.000506223 0.00243872)
(0.00103693 -0.00213115 0.00116843)
(-0.000128301 -0.00125815 0.000114525)
(0.000903166 -0.000885145 -0.000488519)
(-0.00061663 -0.00050354 0.000605999)
(-0.00120724 -0.000836795 0.00112377)
(-0.00166576 -0.00199133 0.0015861)
(0.000575388 -0.00262931 0.00260822)
(-0.000194832 0.0036123 0.00647636)
(-0.00773085 0.00543198 0.00786063)
(-0.0141671 0.00253293 0.00964055)
(-0.0184803 -0.000703678 0.012817)
(-0.0188409 -0.00394171 0.0163813)
(-0.0146743 -0.00765444 0.0191169)
(-0.0080579 -0.0120113 0.0197563)
(0.00198514 0.000775367 0.0104416)
(0.0044652 0.00309637 0.0111944)
(0.00683357 0.00668332 0.00970749)
(0.007295 0.0100334 0.007295)
(0.00593405 0.0108447 0.00597822)
(0.00440135 0.0043474 0.00501193)
(0.00289393 -0.000636569 0.00210759)
(0.00123164 -0.00129931 -0.000279746)
(-0.00082749 -0.000702686 -0.00166276)
(-0.00288381 -0.00067362 -0.0012071)
(-0.00385545 -0.00138244 -0.000146023)
(-0.00430495 -0.00201059 0.00129144)
(-0.00537082 -0.000749124 0.00301)
(-0.00493703 0.00510581 0.00500031)
(-0.006714 0.0100887 0.00618207)
(-0.00926225 0.00930918 0.00627567)
(-0.0117229 0.00554533 0.00752524)
(-0.0118796 -0.000823661 0.00976547)
(-0.00912857 -0.00816843 0.010992)
(-0.00398961 -0.0148745 0.00919553)
(0.00210158 -0.00296795 0.00373134)
(0.00406895 -0.00106762 0.00733945)
(0.00598324 0.00357048 0.00835414)
(0.00737556 0.00892844 0.00737556)
(0.00748655 0.0105215 0.00651787)
(0.00690032 0.00537338 0.00559395)
(0.0052381 0.00123312 0.00379907)
(0.002757 -4.87599e-05 0.00141812)
(0.000704545 0.000147678 -0.000945567)
(-0.00184806 -0.000689805 -0.00134038)
(-0.00352117 -0.00215022 -0.000278625)
(-0.00500093 -0.0028482 0.0012247)
(-0.00633965 -0.00124523 0.00267922)
(-0.00657465 0.00428716 0.00421907)
(-0.0065279 0.0102031 0.00544833)
(-0.00732159 0.00987662 0.00562569)
(-0.00842202 0.0043923 0.006594)
(-0.00791395 -0.00424216 0.00784765)
(-0.0063959 -0.0129105 0.00725004)
(-0.00230116 -0.0201483 0.00285373)
(0.00295793 -0.00892908 -0.00150279)
(0.00551631 -0.00293701 0.00369629)
(0.00637889 0.00134709 0.00708639)
(0.00768605 0.00674567 0.00768605)
(0.00849796 0.00900967 0.0073347)
(0.00826056 0.00619914 0.00663017)
(0.00670974 0.0033073 0.00533501)
(0.00434285 0.00191694 0.00337858)
(0.00237977 0.00160259 0.000684474)
(0.000517034 0.000940251 -0.00079305)
(-0.00222261 -0.00099276 -2.08011e-07)
(-0.00438087 -0.00157002 0.00166092)
(-0.00616048 -0.000419182 0.00303946)
(-0.00670606 0.0033312 0.00419322)
(-0.00604346 0.00880204 0.00535244)
(-0.00562729 0.00995513 0.00607067)
(-0.00565884 0.0054358 0.00741257)
(-0.00525368 -0.00376962 0.00818427)
(-0.00523276 -0.0138165 0.00578375)
(-0.00147682 -0.0223511 -0.00068381)
(0.00249021 -0.0150432 -0.00469338)
(0.00679109 -0.00544947 0.00110598)
(0.0070208 -0.000744565 0.00547178)
(0.00755322 0.00450746 0.00755322)
(0.00829431 0.00749022 0.00799592)
(0.00813581 0.00656556 0.00760901)
(0.00678657 0.00486662 0.00659173)
(0.00477829 0.00376844 0.00488008)
(0.003046 0.00307503 0.00236751)
(0.00183067 0.0024454 0.000460272)
(0.000109985 0.00149115 0.000996222)
(-0.00215473 0.000850118 0.00286775)
(-0.00414413 0.00109789 0.00407912)
(-0.00518811 0.00299794 0.00479397)
(-0.00475912 0.00712895 0.00571065)
(-0.00377484 0.00929153 0.00691097)
(-0.00321706 0.00588514 0.00863695)
(-0.00299788 -0.00333284 0.00877311)
(-0.00450647 -0.0138529 0.00492765)
(-0.000668781 -0.0244948 -0.00277826)
(0.000841981 -0.0196687 -0.00694261)
(0.00680513 -0.00684736 -0.000426041)
(0.00651056 -0.00111521 0.0040231)
(0.00661268 0.00388173 0.00661268)
(0.00691168 0.00699817 0.00769882)
(0.00676129 0.00714931 0.00763031)
(0.00575791 0.00630621 0.0069002)
(0.0043214 0.0055287 0.00559311)
(0.00299811 0.00477665 0.00364084)
(0.00204048 0.00417891 0.00192648)
(0.000993047 0.00382422 0.00205207)
(-0.000476619 0.00366127 0.00354321)
(-0.00196087 0.00345725 0.0044744)
(-0.00292953 0.00390616 0.00500297)
(-0.00284362 0.0062606 0.00577362)
(-0.00180635 0.00849778 0.0071501)
(-0.00118351 0.00624564 0.00891397)
(-0.000926818 -0.00228757 0.00852329)
(-0.00376038 -0.013147 0.00370636)
(0.000397291 -0.0259153 -0.00449594)
(-0.00117172 -0.0228582 -0.00896763)
(0.00566122 -0.00826357 -0.0019899)
(0.00493467 -0.00153753 0.00252711)
(0.00488614 0.00347509 0.00488614)
(0.00494535 0.00637309 0.00614052)
(0.00501687 0.00683797 0.00633052)
(0.00460042 0.00630312 0.00600699)
(0.00386887 0.00559476 0.00528937)
(0.00303084 0.00482463 0.00411056)
(0.00219975 0.00433523 0.00292146)
(0.00135122 0.00411618 0.0027652)
(0.000487161 0.00392374 0.00366509)
(-0.000498229 0.00354409 0.00432082)
(-0.00121784 0.00347803 0.00446834)
(-0.0012206 0.00487448 0.0048666)
(-0.000130387 0.00697207 0.00610221)
(0.000438355 0.00537001 0.00766254)
(0.000948815 -0.00144583 0.00710008)
(-0.00250435 -0.0121086 0.00151862)
(0.00183973 -0.0262102 -0.00637397)
(-0.00352858 -0.0232589 -0.0113851)
(0.00238536 -0.00918393 -0.00482972)
(0.00105427 0.000611691 -0.00010125)
(0.00215211 0.00535739 0.00215211)
(0.00243985 0.00721485 0.00323661)
(0.00309132 0.00759483 0.0034403)
(0.00342319 0.00756178 0.00339722)
(0.00348462 0.00751133 0.00325419)
(0.0032928 0.00743728 0.00297408)
(0.00260988 0.00746507 0.0026861)
(0.00160114 0.00729857 0.00249877)
(0.000934371 0.00698694 0.00261836)
(0.000587387 0.00633959 0.00263036)
(0.00032501 0.00559543 0.0024008)
(0.000448025 0.00571354 0.00258258)
(0.0015028 0.00685751 0.00358814)
(0.00217364 0.00582317 0.00464849)
(0.00310612 0.000460552 0.00331322)
(0.000425763 -0.0107951 -0.00201032)
(0.00386661 -0.0243287 -0.0086345)
(-0.00698423 -0.0192699 -0.0147682)
(-0.00453135 -0.0101862 -0.0100245)
(-0.00599937 -0.00388712 -0.00617188)
(-0.00386835 -0.000177283 -0.00386835)
(-0.0028555 0.00119707 -0.00354501)
(-0.00117848 0.000938104 -0.003673)
(0.000202219 0.000335609 -0.00393723)
(0.00123736 -5.51548e-05 -0.00415883)
(0.00204559 3.69005e-05 -0.00414484)
(0.00226428 0.00108519 -0.00367063)
(0.00236304 0.000958262 -0.00371802)
(0.00277529 -0.000213892 -0.00401289)
(0.00343906 -0.000621076 -0.00434582)
(0.0040026 -0.000829204 -0.00466265)
(0.00449863 -0.000688129 -0.00445177)
(0.00548549 0.000223844 -0.00338029)
(0.00632853 -0.000228839 -0.00239291)
(0.00798582 -0.00376845 -0.00419843)
(0.00588076 -0.0101531 -0.00782685)
(0.00713752 -0.0193906 -0.0121078)
(-0.0139111 -0.0101833 -0.0203666)
(-0.0195005 -0.00338123 -0.0211301)
(-0.0246463 -7.452e-05 -0.0230419)
(-0.0251088 0.00169408 -0.0251088)
(-0.0241425 0.00293914 -0.0275285)
(-0.0223417 0.00406939 -0.0304553)
(-0.0196238 0.00539007 -0.0334704)
(-0.0156545 0.00697868 -0.0361602)
(-0.01007 0.00884924 -0.0378754)
(-0.00304607 0.0110476 -0.0373543)
(0.00759188 0.010152 -0.0364413)
(0.0134703 0.00823626 -0.035957)
(0.0184211 0.00663968 -0.0341121)
(0.0217609 0.00527496 -0.0316864)
(0.0237808 0.0040244 -0.0290706)
(0.0248512 0.00285675 -0.0262703)
(0.0253155 0.00161274 -0.0236667)
(0.0245984 -0.000126486 -0.0213653)
(0.0194173 -0.003397 -0.0191562)
(0.0136771 -0.0100489 -0.0176785)
(0.00420916 0.00122842 0.0125142)
(0.00650206 0.00283767 0.011981)
(0.0077905 0.0049092 0.00862041)
(0.00611038 0.00679239 0.00441404)
(0.0019602 0.00622817 0.0019602)
(-0.00165406 -0.00243479 0.00224709)
(0.00233445 -0.00205425 0.00103469)
(0.00127571 -0.00132946 0.00158131)
(0.00130588 -0.000948606 0.00140319)
(-0.000908409 -0.000488406 0.00268622)
(-0.00227555 -0.00116292 0.00311839)
(-0.00275194 -0.00243553 0.00312995)
(-0.000847007 -0.00234105 0.00361781)
(-0.0010632 0.00357243 0.00490194)
(-0.00547188 0.00627429 0.00490678)
(-0.01008 0.00472409 0.00710516)
(-0.0136496 0.00199735 0.0110322)
(-0.0144388 -0.000899757 0.0155733)
(-0.0114825 -0.00366341 0.0187047)