/*--------------------------------*- C++ -*----------------------------------*\
  =========                 |
  \\      /  F ield         | OpenFOAM: The Open Source CFD Toolbox
   \\    /   O peration     | Website:  https://openfoam.org
    \\  /    A nd           | Version:  8
     \\/     M anipulation  |
\*---------------------------------------------------------------------------*/
FoamFile
{
    version     2.0;
    format      ascii;
    class       volScalarField;
    location    "800";
    object      epsilon;
}
// * * * * * * * * * * * * * * * * * * * * * * * * * * * * * * * * * * * * * //

dimensions      [0 2 -3 0 0 0 0];

internalField   nonuniform List<scalar> 
4000
(
4.78792e-07
4.37533e-07
3.53417e-07
2.37245e-07
1.0064e-07
4.55574e-08
3.70637e-08
3.64174e-08
3.71628e-08
3.88158e-08
4.20476e-08
4.56449e-08
4.92959e-08
5.28725e-08
5.60276e-08
5.86669e-08
6.06716e-08
8.12768e-08
1.90668e-07
2.66698e-07
5.76778e-07
5.41673e-07
4.28137e-07
2.78484e-07
1.66121e-07
9.66085e-08
6.04437e-08
5.12723e-08
5.15928e-08
5.43014e-08
5.88428e-08
6.54301e-08
7.37858e-08
8.23339e-08
8.8408e-08
8.69049e-08
7.6457e-08
1.02478e-07
2.16653e-07
3.3372e-07
6.45131e-07
6.34014e-07
5.40503e-07
3.94129e-07
2.70372e-07
1.85557e-07
1.28788e-07
9.54019e-08
8.05952e-08
8.09817e-08
1.00477e-07
1.29097e-07
1.56525e-07
1.7845e-07
1.90804e-07
1.8616e-07
1.67114e-07
1.76338e-07
3.02645e-07
3.79596e-07
6.94909e-07
7.14402e-07
6.61533e-07
5.55645e-07
4.57013e-07
3.8396e-07
3.27297e-07
2.68225e-07
2.19445e-07
2.19853e-07
2.51043e-07
2.905e-07
3.25153e-07
3.49581e-07
3.61436e-07
3.5909e-07
3.46065e-07
3.49284e-07
4.00652e-07
4.13926e-07
7.37851e-07
7.94789e-07
7.93224e-07
7.53884e-07
7.04085e-07
6.53121e-07
5.97155e-07
5.30056e-07
4.62861e-07
4.61379e-07
4.85628e-07
5.12453e-07
5.34104e-07
5.46718e-07
5.48053e-07
5.36923e-07
5.15919e-07
4.95455e-07
4.822e-07
4.44702e-07
7.80282e-07
8.78928e-07
9.33469e-07
9.53651e-07
9.5157e-07
9.27824e-07
8.81332e-07
8.14474e-07
7.32609e-07
7.09577e-07
7.19723e-07
7.32431e-07
7.39985e-07
7.38594e-07
7.25479e-07
6.98711e-07
6.58656e-07
6.08531e-07
5.49586e-07
4.69637e-07
8.24055e-07
9.67407e-07
1.07648e-06
1.14963e-06
1.19064e-06
1.19597e-06
1.16534e-06
1.10247e-06
1.00487e-06
9.55265e-07
9.52773e-07
9.52653e-07
9.46797e-07
9.30396e-07
8.99459e-07
8.51501e-07
7.86299e-07
7.04644e-07
6.07355e-07
4.90353e-07
8.72099e-07
1.06633e-06
1.23048e-06
1.35786e-06
1.44594e-06
1.48539e-06
1.47246e-06
1.41379e-06
1.30269e-06
1.2212e-06
1.20521e-06
1.19263e-06
1.17293e-06
1.13949e-06
1.08706e-06
1.012e-06
9.13632e-07
7.95811e-07
6.61755e-07
5.09542e-07
9.29512e-07
1.18413e-06
1.40939e-06
1.59051e-06
1.72527e-06
1.80221e-06
1.81305e-06
1.76753e-06
1.65547e-06
1.53364e-06
1.50032e-06
1.46904e-06
1.42829e-06
1.3703e-06
1.28914e-06
1.18122e-06
1.04668e-06
8.9284e-07
7.21455e-07
5.32073e-07
9.98112e-07
1.27984e-06
1.52338e-06
1.70713e-06
1.84318e-06
1.93519e-06
1.98516e-06
1.99343e-06
1.94616e-06
1.81843e-06
1.75593e-06
1.67969e-06
1.59147e-06
1.49218e-06
1.38189e-06
1.25909e-06
1.12074e-06
9.63394e-07
7.78136e-07
5.64348e-07
4.37533e-07
4.69422e-07
3.55215e-07
2.19594e-07
9.43528e-08
6.25736e-08
6.0946e-08
6.22252e-08
6.40437e-08
6.66793e-08
6.99185e-08
7.24335e-08
7.44433e-08
7.61472e-08
7.66219e-08
7.44442e-08
7.18766e-08
1.00043e-07
2.02613e-07
2.73825e-07
5.41673e-07
6.31307e-07
5.2465e-07
3.06953e-07
1.85205e-07
1.26315e-07
8.82201e-08
7.01385e-08
6.43478e-08
6.34747e-08
6.53457e-08
6.8891e-08
7.40853e-08
8.03221e-08
8.44184e-08
8.13113e-08
8.83644e-08
1.54447e-07
2.97451e-07
3.46743e-07
6.34014e-07
6.95741e-07
7.11711e-07
5.26454e-07
3.18266e-07
2.0248e-07
1.44353e-07
1.14163e-07
9.68912e-08
8.74718e-08
8.6283e-08
9.26961e-08
1.04026e-07
1.17184e-07
1.27422e-07
1.30456e-07
1.41038e-07
2.27223e-07
5.1954e-07
3.98654e-07
7.14402e-07
7.02043e-07
7.03732e-07
6.04547e-07
4.50934e-07
3.17504e-07
2.36159e-07
1.8412e-07
1.53258e-07
1.44283e-07
1.50299e-07
1.65353e-07
1.86503e-07
2.11078e-07
2.35269e-07
2.56474e-07
2.86367e-07
3.75871e-07
5.65966e-07
4.32253e-07
7.94789e-07
7.44894e-07
7.46457e-07
6.96082e-07
6.11114e-07
5.04985e-07
3.981e-07
3.19073e-07
2.64595e-07
2.50589e-07
2.58707e-07
2.7757e-07
3.05659e-07
3.3431e-07
3.63727e-07
3.94032e-07
4.29162e-07
4.85621e-07
5.36022e-07
4.5945e-07
8.78928e-07
8.07961e-07
8.07638e-07
7.88176e-07
7.58507e-07
6.94341e-07
5.89973e-07
4.71254e-07
3.97243e-07
3.77121e-07
3.84346e-07
4.10064e-07
4.34057e-07
4.56599e-07
4.78955e-07
5.01023e-07
5.21029e-07
5.24008e-07
5.08271e-07
4.82974e-07
9.67407e-07
8.96797e-07
8.94907e-07
8.7559e-07
8.61961e-07
8.24558e-07
7.54937e-07
6.60119e-07
5.48106e-07
5.20387e-07
5.34488e-07
5.46661e-07
5.59209e-07
5.70206e-07
5.76114e-07
5.76621e-07
5.6827e-07
5.41698e-07
5.05325e-07
5.10193e-07
1.06633e-06
1.04664e-06
1.069e-06
1.05955e-06
1.04836e-06
1.0182e-06
9.52913e-07
8.62174e-07
7.45519e-07
6.94746e-07
7.04081e-07
7.20828e-07
7.36479e-07
7.42916e-07
7.32605e-07
7.02806e-07
6.59294e-07
6.05936e-07
5.56605e-07
5.47145e-07
1.18413e-06
1.3208e-06
1.46218e-06
1.54986e-06
1.60822e-06
1.6174e-06
1.55137e-06
1.43226e-06
1.25761e-06
1.13545e-06
1.15616e-06
1.1803e-06
1.19347e-06
1.18478e-06
1.13722e-06
1.04837e-06
9.28299e-07
8.082e-07
6.98947e-07
5.99644e-07
1.27984e-06
1.6381e-06
1.9576e-06
2.21308e-06
2.41474e-06
2.56127e-06
2.65016e-06
2.67872e-06
2.63419e-06
2.45658e-06
2.34524e-06
2.21355e-06
2.0676e-06
1.91017e-06
1.74109e-06
1.55847e-06
1.35965e-06
1.14493e-06
9.0755e-07
6.49835e-07
3.53417e-07
3.55215e-07
2.73616e-07
1.52256e-07
7.39174e-08
7.18844e-08
7.58934e-08
7.93826e-08
8.37644e-08
8.72806e-08
8.89722e-08
8.878e-08
8.82122e-08
8.81254e-08
8.65065e-08
8.1853e-08
7.92613e-08
1.1642e-07
2.1141e-07
2.77528e-07
4.28137e-07
5.2465e-07
3.68694e-07
2.29217e-07
1.62279e-07
1.25067e-07
9.26211e-08
7.99536e-08
7.79177e-08
7.8283e-08
7.8479e-08
7.9126e-08
8.18228e-08
8.56567e-08
8.61403e-08
8.12366e-08
1.06416e-07
1.75906e-07
3.03065e-07
3.50408e-07
5.40503e-07
7.11711e-07
6.58773e-07
4.34422e-07
2.75934e-07
1.94342e-07
1.53851e-07
1.27892e-07
1.10811e-07
1.00693e-07
9.39743e-08
9.08519e-08
9.22233e-08
9.63896e-08
1.00138e-07
1.06382e-07
1.38435e-07
2.48908e-07
5.6904e-07
4.05829e-07
6.61533e-07
7.03732e-07
6.67245e-07
5.34475e-07
3.73849e-07
2.61002e-07
1.94027e-07
1.57423e-07
1.41008e-07
1.35599e-07
1.31265e-07
1.27599e-07
1.3012e-07
1.39428e-07
1.52824e-07
1.69133e-07
2.04929e-07
3.28815e-07
6.65904e-07
4.41528e-07
7.93224e-07
7.46457e-07
6.61009e-07
5.57522e-07
4.43861e-07
3.40771e-07
2.60854e-07
2.06783e-07
1.75962e-07
1.66422e-07
1.67462e-07
1.72618e-07
1.81669e-07
1.95519e-07
2.15645e-07
2.39634e-07
2.79229e-07
3.9646e-07
6.27131e-07
4.68809e-07
9.33469e-07
8.07638e-07
6.88847e-07
5.80576e-07
4.91243e-07
4.06476e-07
3.25733e-07
2.58944e-07
2.18239e-07
2.04193e-07
2.04299e-07
2.09891e-07
2.18344e-07
2.31499e-07
2.50884e-07
2.77588e-07
3.16889e-07
4.04504e-07
5.45586e-07
4.98222e-07
1.07648e-06
8.94907e-07
7.6442e-07
6.25984e-07
5.09236e-07
4.30542e-07
3.67329e-07
3.11791e-07
2.71837e-07
2.54656e-07
2.50009e-07
2.49596e-07
2.53333e-07
2.61933e-07
2.74661e-07
2.92135e-07
3.24042e-07
3.88957e-07
4.89661e-07
5.39569e-07
1.23048e-06
1.069e-06
9.91898e-07
8.80554e-07
7.80396e-07
6.95389e-07
6.3689e-07
5.62914e-07
4.87958e-07
4.44878e-07
4.42126e-07
4.52462e-07
4.69254e-07
4.88921e-07
5.0017e-07
4.86718e-07
4.5896e-07
4.69672e-07
5.24384e-07
5.99755e-07
1.40939e-06
1.46218e-06
1.65118e-06
1.80076e-06
1.88265e-06
1.88764e-06
1.75683e-06
1.57448e-06
1.37632e-06
1.22098e-06
1.22288e-06
1.26876e-06
1.32344e-06
1.35905e-06
1.31795e-06
1.19856e-06
1.01614e-06
8.40002e-07
7.20532e-07
6.78249e-07
1.52338e-06
1.9576e-06
2.34469e-06
2.6661e-06
2.93063e-06
3.13184e-06
3.26739e-06
3.32943e-06
3.29809e-06
3.08671e-06
2.91264e-06
2.71665e-06
2.50806e-06
2.29235e-06
2.06609e-06
1.82638e-06
1.57153e-06
1.30852e-06
1.0331e-06
7.44409e-07
2.37245e-07
2.19594e-07
1.52256e-07
8.09864e-08
6.78323e-08
7.67517e-08
8.28852e-08
9.10056e-08
1.0004e-07
1.04756e-07
1.02423e-07
9.73343e-08
9.39512e-08
9.30631e-08
9.05423e-08
8.48253e-08
8.53868e-08
1.33773e-07
2.17693e-07
2.7686e-07
2.78484e-07
3.06953e-07
2.29217e-07
1.66958e-07
1.37154e-07
1.04926e-07
8.70489e-08
8.70251e-08
9.31303e-08
9.60668e-08
9.32976e-08
8.96144e-08
8.93199e-08
9.11689e-08
8.92206e-08
8.54536e-08
1.19851e-07
1.81854e-07
2.82e-07
3.4738e-07
3.94129e-07
5.26454e-07
4.34422e-07
3.04143e-07
2.19966e-07
1.76709e-07
1.46988e-07
1.26696e-07
1.22062e-07
1.20445e-07
1.10863e-07
1.00074e-07
9.51294e-08
9.47252e-08
9.61646e-08
1.05642e-07
1.431e-07
2.50856e-07
5.41198e-07
4.08355e-07
5.55645e-07
6.04547e-07
5.34475e-07
4.08918e-07
2.96665e-07
2.20722e-07
1.7559e-07
1.55082e-07
1.54646e-07
1.58667e-07
1.47146e-07
1.26588e-07
1.1589e-07
1.15705e-07
1.21847e-07
1.34672e-07
1.74342e-07
3.11056e-07
7.01526e-07
4.55088e-07
7.53884e-07
6.96082e-07
5.57522e-07
4.40352e-07
3.39169e-07
2.60224e-07
2.0438e-07
1.72216e-07
1.65539e-07
1.74314e-07
1.74612e-07
1.61497e-07
1.49738e-07
1.48243e-07
1.55072e-07
1.69553e-07
2.0748e-07
3.46213e-07
7.16077e-07
4.95086e-07
9.53651e-07
7.88176e-07
5.80576e-07
4.44715e-07
3.54587e-07
2.86016e-07
2.31607e-07
1.95781e-07
1.86157e-07
1.94663e-07
1.96676e-07
1.8608e-07
1.7534e-07
1.71837e-07
1.76293e-07
1.89363e-07
2.2083e-07
3.41148e-07
6.38742e-07
5.38015e-07
1.14963e-06
8.7559e-07
6.25984e-07
4.46106e-07
3.67592e-07
3.25556e-07
2.93066e-07
2.69854e-07
2.64519e-07
2.70534e-07
2.6804e-07
2.54191e-07
2.4139e-07
2.31624e-07
2.22545e-07
2.15814e-07
2.24733e-07
3.11991e-07
5.46272e-07
5.93869e-07
1.35786e-06
1.05955e-06
8.80554e-07
7.13787e-07
7.27942e-07
7.57822e-07
7.3505e-07
6.80628e-07
6.25481e-07
5.74747e-07
5.46278e-07
5.34652e-07
5.40189e-07
5.39703e-07
5.1211e-07
4.50071e-07
3.76062e-07
3.9047e-07
5.39188e-07
6.65441e-07
1.59051e-06
1.54986e-06
1.80076e-06
2.0494e-06
2.16985e-06
2.18387e-06
2.06587e-06
1.87689e-06
1.69321e-06
1.51289e-06
1.48526e-06
1.52814e-06
1.59212e-06
1.62349e-06
1.57631e-06
1.4164e-06
1.14895e-06
9.14075e-07
7.50403e-07
7.55681e-07
1.70713e-06
2.21308e-06
2.6661e-06
3.05702e-06
3.4002e-06
3.67191e-06
3.86976e-06
3.99474e-06
4.02575e-06
3.80585e-06
3.51713e-06
3.22231e-06
2.93564e-06
2.65162e-06
2.36169e-06
2.06137e-06
1.74865e-06
1.44085e-06
1.13273e-06
8.17875e-07
1.0064e-07
9.43528e-08
7.39174e-08
6.78323e-08
7.17915e-08
7.72061e-08
8.68917e-08
1.03738e-07
1.22019e-07
1.26792e-07
1.15793e-07
1.02108e-07
9.74582e-08
9.96521e-08
9.80391e-08
9.08861e-08
9.5534e-08
1.54125e-07
2.19808e-07
2.70869e-07
1.66121e-07
1.85205e-07
1.62279e-07
1.37154e-07
1.06718e-07
8.66573e-08
8.55081e-08
1.00074e-07
1.19562e-07
1.24807e-07
1.14454e-07
1.04663e-07
1.01031e-07
1.01099e-07
9.77843e-08
9.57952e-08
1.25477e-07
1.81701e-07
2.64808e-07
3.37517e-07
2.70372e-07
3.18266e-07
2.75934e-07
2.19966e-07
1.83212e-07
1.53498e-07
1.29899e-07
1.32367e-07
1.56873e-07
1.63324e-07
1.38791e-07
1.15888e-07
1.0437e-07
1.0071e-07
1.01723e-07
1.1053e-07
1.44408e-07
2.39627e-07
4.71667e-07
4.03554e-07
4.57013e-07
4.50934e-07
3.73849e-07
2.96665e-07
2.33666e-07
1.89801e-07
1.65954e-07
1.71073e-07
2.08863e-07
2.2991e-07
1.88158e-07
1.40359e-07
1.17893e-07
1.11617e-07
1.13854e-07
1.2558e-07
1.64485e-07
2.98139e-07
6.78265e-07
4.64732e-07
7.04085e-07
6.11114e-07
4.43861e-07
3.39169e-07
2.66003e-07
2.13572e-07
1.82376e-07
1.86906e-07
2.38848e-07
2.8293e-07
2.49721e-07
1.80499e-07
1.44048e-07
1.31857e-07
1.32066e-07
1.4281e-07
1.79397e-07
3.24518e-07
7.66556e-07
5.23005e-07
9.5157e-07
7.58507e-07
4.91243e-07
3.54587e-07
2.79406e-07
2.31708e-07
2.06151e-07
2.21016e-07
2.89539e-07
3.44534e-07
3.0568e-07
2.25484e-07
1.75521e-07
1.55951e-07
1.50794e-07
1.56245e-07
1.82125e-07
3.10465e-07
7.3275e-07
5.82418e-07
1.19064e-06
8.61961e-07
5.09236e-07
3.67592e-07
3.26149e-07
3.17236e-07
3.2525e-07
3.67045e-07
4.49313e-07
4.88925e-07
4.19783e-07
3.23471e-07
2.68188e-07
2.3971e-07
2.17331e-07
1.98159e-07
1.92156e-07
2.83527e-07
6.21109e-07
6.50744e-07
1.44594e-06
1.04836e-06
7.80396e-07
7.27942e-07
8.33379e-07
8.93218e-07
8.89617e-07
8.88527e-07
9.03689e-07
8.44584e-07
7.15895e-07
6.25662e-07
6.14861e-07
6.13336e-07
5.74854e-07
4.88148e-07
3.80604e-07
3.7006e-07
5.72823e-07
7.24402e-07
1.72527e-06
1.60822e-06
1.88265e-06
2.16985e-06
2.38262e-06
2.39921e-06
2.26325e-06
2.09963e-06
1.97643e-06
1.79954e-06
1.69269e-06
1.7096e-06
1.80981e-06
1.87634e-06
1.82964e-06
1.62515e-06
1.26593e-06
9.40235e-07
7.69739e-07
8.15105e-07
1.84318e-06
2.41474e-06
2.93063e-06
3.4002e-06
3.8209e-06
4.16991e-06
4.464e-06
4.7071e-06
4.85541e-06
4.65636e-06
4.18871e-06
3.74181e-06
3.34593e-06
2.97956e-06
2.62162e-06
2.26307e-06
1.89905e-06
1.54085e-06
1.20478e-06
8.68563e-07
4.55574e-08
6.25736e-08
7.18844e-08
7.67517e-08
7.72061e-08
8.1476e-08
9.48738e-08
1.21531e-07
1.50801e-07
1.49205e-07
1.24106e-07
1.09426e-07
1.12891e-07
1.21592e-07
1.2175e-07
1.11837e-07
1.13874e-07
1.65561e-07
2.1522e-07
2.58044e-07
9.66085e-08
1.26315e-07
1.25067e-07
1.04926e-07
8.66573e-08
8.16357e-08
9.37939e-08
1.25409e-07
1.67128e-07
1.71361e-07
1.4655e-07
1.27677e-07
1.20053e-07
1.1818e-07
1.15162e-07
1.13718e-07
1.2867e-07
1.78476e-07
2.49148e-07
3.21178e-07
1.85557e-07
2.0248e-07
1.94342e-07
1.76709e-07
1.53498e-07
1.28741e-07
1.29303e-07
1.75029e-07
2.50961e-07
2.50323e-07
1.86923e-07
1.39089e-07
1.17493e-07
1.10339e-07
1.10947e-07
1.19097e-07
1.45401e-07
2.26104e-07
4.07656e-07
3.91309e-07
3.8396e-07
3.17504e-07
2.61002e-07
2.20722e-07
1.89801e-07
1.69947e-07
1.7719e-07
2.4891e-07
3.82503e-07
3.92341e-07
2.65125e-07
1.67232e-07
1.26736e-07
1.15103e-07
1.16199e-07
1.27895e-07
1.63074e-07
2.83516e-07
6.07141e-07
4.65112e-07
6.53121e-07
5.04985e-07
3.40771e-07
2.60224e-07
2.13572e-07
1.88143e-07
2.04514e-07
3.17109e-07
5.26853e-07
5.70416e-07
3.77563e-07
2.13501e-07
1.46951e-07
1.27784e-07
1.26669e-07
1.37305e-07
1.72684e-07
3.13913e-07
7.60899e-07
5.41405e-07
9.27824e-07
6.94341e-07
4.06476e-07
2.86016e-07
2.31708e-07
2.14069e-07
2.57929e-07
4.31561e-07
7.18239e-07
7.75184e-07
5.06701e-07
2.74462e-07
1.79494e-07
1.5012e-07
1.43206e-07
1.47839e-07
1.7207e-07
3.00698e-07
7.94153e-07
6.16845e-07
1.19597e-06
8.24558e-07
4.30542e-07
3.25556e-07
3.17236e-07
3.55e-07
4.60713e-07
7.08733e-07
1.04712e-06
1.05113e-06
6.8972e-07
3.84051e-07
2.74072e-07
2.37279e-07
2.15007e-07
1.96454e-07
1.87984e-07
2.78954e-07
6.79344e-07
6.96135e-07
1.48539e-06
1.0182e-06
6.95389e-07
7.57822e-07
8.93218e-07
9.75206e-07
1.06118e-06
1.24462e-06
1.43714e-06
1.35224e-06
9.7644e-07
6.73623e-07
6.18409e-07
6.23892e-07
5.90191e-07
5.04757e-07
3.91037e-07
3.78679e-07
6.02413e-07
7.65103e-07
1.80221e-06
1.6174e-06
1.88764e-06
2.18387e-06
2.39921e-06
2.40171e-06
2.32806e-06
2.31678e-06
2.35006e-06
2.19685e-06
1.89375e-06
1.76835e-06
1.87174e-06
1.97957e-06
1.94803e-06
1.72803e-06
1.33183e-06
9.55809e-07
7.82488e-07
8.5036e-07
1.93519e-06
2.56127e-06
3.13184e-06
3.67191e-06
4.16991e-06
4.62726e-06
5.07673e-06
5.51867e-06
5.8619e-06
5.72026e-06
4.97844e-06
4.29107e-06
3.73695e-06
3.26286e-06
2.82439e-06
2.40461e-06
1.99601e-06
1.60483e-06
1.24627e-06
8.95701e-07
3.70637e-08
6.0946e-08
7.58934e-08
8.28852e-08
8.68917e-08
9.48738e-08
1.12535e-07
1.45093e-07
1.74948e-07
1.53224e-07
1.35813e-07
1.41176e-07
1.58059e-07
1.63413e-07
1.58014e-07
1.43568e-07
1.30657e-07
1.60724e-07
1.99908e-07
2.35075e-07
6.04437e-08
8.82201e-08
9.26211e-08
8.70489e-08
8.55081e-08
9.37939e-08
1.18675e-07
1.70778e-07
2.63288e-07
2.60509e-07
2.0129e-07
1.65737e-07
1.54185e-07
1.49444e-07
1.4268e-07
1.36899e-07
1.40408e-07
1.72472e-07
2.30819e-07
2.99839e-07
1.28788e-07
1.44353e-07
1.53851e-07
1.46988e-07
1.29899e-07
1.29303e-07
1.73077e-07
2.93474e-07
4.81906e-07
4.633e-07
3.00623e-07
1.8305e-07
1.39114e-07
1.26379e-07
1.25992e-07
1.32928e-07
1.52129e-07
2.13929e-07
3.54165e-07
3.74378e-07
3.27297e-07
2.36159e-07
1.94027e-07
1.7559e-07
1.65954e-07
1.7719e-07
2.58191e-07
4.85544e-07
8.34003e-07
8.09836e-07
4.81826e-07
2.30957e-07
1.44103e-07
1.23619e-07
1.24605e-07
1.37049e-07
1.6878e-07
2.70199e-07
5.29517e-07
4.57523e-07
5.97155e-07
3.981e-07
2.60854e-07
2.0438e-07
1.82376e-07
2.04514e-07
3.48508e-07
7.38444e-07
1.29902e-06
1.27782e-06
7.4123e-07
3.07117e-07
1.63793e-07
1.31778e-07
1.30264e-07
1.4236e-07
1.77662e-07
3.07403e-07
7.07575e-07
5.45455e-07
8.81332e-07
5.89973e-07
3.25733e-07
2.31607e-07
2.06151e-07
2.57929e-07
4.97654e-07
1.0904e-06
1.81771e-06
1.8041e-06
1.04975e-06
4.12952e-07
1.98501e-07
1.51707e-07
1.44371e-07
1.50573e-07
1.76208e-07
3.01178e-07
8.03357e-07
6.30931e-07
1.16534e-06
7.54937e-07
3.67329e-07
2.93066e-07
3.2525e-07
4.60713e-07
8.17172e-07
1.58227e-06
2.24236e-06
2.17869e-06
1.31125e-06
5.42761e-07
2.83184e-07
2.29641e-07
2.11368e-07
1.98388e-07
1.93917e-07
2.83037e-07
7.0318e-07
7.16084e-07
1.47246e-06
9.52913e-07
6.3689e-07
7.3505e-07
8.89617e-07
1.06118e-06
1.38361e-06
1.94363e-06
2.43182e-06
2.35484e-06
1.56826e-06
7.83479e-07
5.84043e-07
5.79016e-07
5.56994e-07
4.90872e-07
3.8867e-07
3.80793e-07
6.0483e-07
7.75988e-07
1.81305e-06
1.55137e-06
1.75683e-06
2.06587e-06
2.26325e-06
2.32806e-06
2.4499e-06
2.74837e-06
3.0643e-06
2.96447e-06
2.32383e-06
1.82566e-06
1.82217e-06
1.92785e-06
1.89713e-06
1.67648e-06
1.28096e-06
9.09697e-07
7.57873e-07
8.51446e-07
1.98516e-06
2.65016e-06
3.26739e-06
3.86976e-06
4.464e-06
5.07673e-06
5.75853e-06
6.50561e-06
7.15418e-06
7.13239e-06
6.00236e-06
4.92445e-06
4.12989e-06
3.50752e-06
2.96934e-06
2.48167e-06
2.03074e-06
1.61926e-06
1.25151e-06
8.98887e-07
3.64174e-08
6.22252e-08
7.93826e-08
9.10056e-08
1.03738e-07
1.21531e-07
1.45093e-07
1.74074e-07
1.99607e-07
1.85653e-07
1.84808e-07
2.01892e-07
2.14988e-07
2.11992e-07
2.00766e-07
1.80328e-07
1.55319e-07
1.43978e-07
1.67191e-07
1.94652e-07
5.12723e-08
7.01385e-08
7.99536e-08
8.70251e-08
1.00074e-07
1.25409e-07
1.70778e-07
2.68682e-07
5.0562e-07
5.38764e-07
3.469e-07
2.31803e-07
2.054e-07
1.97655e-07
1.88928e-07
1.72601e-07
1.61142e-07
1.68372e-07
2.09492e-07
2.77428e-07
9.54019e-08
1.14163e-07
1.27892e-07
1.26696e-07
1.32367e-07
1.75029e-07
2.93474e-07
5.66048e-07
1.11318e-06
1.2501e-06
6.74784e-07
2.92432e-07
1.81353e-07
1.56623e-07
1.51246e-07
1.53524e-07
1.64592e-07
2.06529e-07
3.1089e-07
3.57765e-07
2.68225e-07
1.8412e-07
1.57423e-07
1.55082e-07
1.71073e-07
2.4891e-07
4.85544e-07
1.04886e-06
2.03023e-06
2.24863e-06
1.17616e-06
4.29734e-07
1.87893e-07
1.43836e-07
1.40943e-07
1.52056e-07
1.79772e-07
2.6098e-07
4.60706e-07
4.4643e-07
5.30056e-07
3.19073e-07
2.06783e-07
1.72216e-07
1.86906e-07
3.17109e-07
7.38444e-07
1.71631e-06
3.10265e-06
3.27609e-06
1.741e-06
6.20059e-07
2.18418e-07
1.47917e-07
1.41827e-07
1.53932e-07
1.88655e-07
3.03103e-07
6.39671e-07
5.38124e-07
8.14474e-07
4.71254e-07
2.58944e-07
1.95781e-07
2.21016e-07
4.31561e-07
1.0904e-06
2.5088e-06
3.89428e-06
3.93572e-06
2.25424e-06
8.08074e-07
2.64414e-07
1.66027e-07
1.53007e-07
1.5936e-07
1.8653e-07
3.04181e-07
7.69097e-07
6.24714e-07
1.10247e-06
6.60119e-07
3.11791e-07
2.69854e-07
3.67045e-07
7.08733e-07
1.58227e-06
2.93003e-06
4.09059e-06
4.14409e-06
2.6122e-06
9.39611e-07
3.36884e-07
2.2962e-07
2.09676e-07
2.01123e-07
2.02181e-07
2.86965e-07
6.91366e-07
7.0724e-07
1.41379e-06
8.62174e-07
5.62914e-07
6.80628e-07
8.88527e-07
1.24462e-06
1.94363e-06
3.0251e-06
3.98097e-06
4.05791e-06
2.82488e-06
1.08499e-06
5.67692e-07
5.12015e-07
4.95248e-07
4.4806e-07
3.71206e-07
3.69934e-07
5.79345e-07
7.55165e-07
1.76753e-06
1.43226e-06
1.57448e-06
1.87689e-06
2.09963e-06
2.31678e-06
2.74837e-06
3.50464e-06
4.28411e-06
4.32204e-06
3.26341e-06
2.03374e-06
1.7544e-06
1.77148e-06
1.70241e-06
1.47804e-06
1.125e-06
8.06348e-07
6.89838e-07
8.18238e-07
1.99343e-06
2.67872e-06
3.32943e-06
3.99474e-06
4.7071e-06
5.51867e-06
6.50561e-06
7.66668e-06
8.7464e-06
8.93459e-06
7.3752e-06
5.68445e-06
4.53127e-06
3.70769e-06
3.04781e-06
2.48611e-06
1.99798e-06
1.5789e-06
1.21714e-06
8.76659e-07
3.71628e-08
6.40437e-08
8.37644e-08
1.0004e-07
1.22019e-07
1.50801e-07
1.74948e-07
1.99607e-07
2.44462e-07
2.58206e-07
2.71608e-07
2.8189e-07
2.69666e-07
2.5992e-07
2.46389e-07
2.24685e-07
1.93952e-07
1.60072e-07
1.37428e-07
1.44336e-07
5.15928e-08
6.43478e-08
7.79177e-08
9.31303e-08
1.19562e-07
1.67128e-07
2.63288e-07
5.0562e-07
1.11957e-06
1.56012e-06
7.96297e-07
3.60026e-07
2.56747e-07
2.52741e-07
2.507e-07
2.35224e-07
2.03797e-07
1.86235e-07
2.00944e-07
2.55378e-07
8.05952e-08
9.68912e-08
1.10811e-07
1.22062e-07
1.56873e-07
2.50961e-07
4.81906e-07
1.11318e-06
2.55562e-06
3.14243e-06
1.43328e-06
5.70928e-07
2.33696e-07
1.99096e-07
1.90855e-07
1.85315e-07
1.85178e-07
2.09021e-07
2.8491e-07
3.46217e-07
2.19445e-07
1.53258e-07
1.41008e-07
1.54646e-07
2.08863e-07
3.82503e-07
8.34003e-07
2.03023e-06
3.99216e-06
4.21241e-06
2.19181e-06
8.5917e-07
2.54201e-07
1.78374e-07
1.68386e-07
1.73558e-07
1.94393e-07
2.57232e-07
4.12009e-07
4.36764e-07
4.62861e-07
2.64595e-07
1.75962e-07
1.65539e-07
2.38848e-07
5.26853e-07
1.29902e-06
3.10265e-06
4.92948e-06
4.74276e-06
3.06135e-06
1.17195e-06
3.01053e-07
1.77753e-07
1.62974e-07
1.71154e-07
2.02123e-07
3.00353e-07
5.80025e-07
5.26641e-07
7.32609e-07
3.97243e-07
2.18239e-07
1.86157e-07
2.89539e-07
7.18239e-07
1.81771e-06
3.89428e-06
5.25583e-06
4.98253e-06
3.92479e-06
1.44088e-06
3.58545e-07
1.93008e-07
1.70241e-07
1.73576e-07
1.99256e-07
3.05921e-07
7.18456e-07
6.08084e-07
1.00487e-06
5.48106e-07
2.71837e-07
2.64519e-07
4.49313e-07
1.04712e-06
2.24236e-06
4.09059e-06
5.19984e-06
5.04115e-06
4.52937e-06
1.56368e-06
4.20752e-07
2.43347e-07
2.15522e-07
2.07631e-07
2.11388e-07
2.8872e-07
6.59062e-07
6.80016e-07
1.30269e-06
7.45519e-07
4.87958e-07
6.25481e-07
9.03689e-07
1.43714e-06
2.43182e-06
3.98097e-06
5.07847e-06
5.05948e-06
4.73032e-06
1.56443e-06
5.92081e-07
4.63069e-07
4.35984e-07
4.00361e-07
3.46752e-07
3.51258e-07
5.43745e-07
7.11827e-07
1.65547e-06
1.25761e-06
1.37632e-06
1.69321e-06
1.97643e-06
2.35006e-06
3.0643e-06
4.28411e-06
5.49437e-06
5.55429e-06
4.71018e-06
2.4168e-06
1.74006e-06
1.60353e-06
1.45203e-06
1.21168e-06
9.3066e-07
6.81252e-07
6.05142e-07
7.51992e-07
1.94616e-06
2.63419e-06
3.29809e-06
4.02575e-06
4.85541e-06
5.8619e-06
7.15418e-06
8.7464e-06
1.02307e-05
1.05289e-05
8.99438e-06
6.5091e-06
4.89594e-06
3.83513e-06
3.0445e-06
2.41302e-06
1.89935e-06
1.48259e-06
1.13661e-06
8.14577e-07
3.88158e-08
6.66793e-08
8.72806e-08
1.04756e-07
1.26792e-07
1.49205e-07
1.53224e-07
1.85653e-07
2.58206e-07
1.13358e-07
1.19085e-07
3.34578e-07
3.1075e-07
2.98972e-07
2.87017e-07
2.68334e-07
2.39907e-07
2.03487e-07
1.65602e-07
1.34005e-07
5.43014e-08
6.34747e-08
7.8283e-08
9.60668e-08
1.24807e-07
1.71361e-07
2.60509e-07
5.38764e-07
1.56012e-06
1.21257e-06
8.501e-07
4.42899e-07
2.82611e-07
2.90709e-07
3.01711e-07
3.03098e-07
2.75347e-07
2.33015e-07
2.19689e-07
2.48084e-07
8.09817e-08
8.74718e-08
1.00693e-07
1.20445e-07
1.63324e-07
2.50323e-07
4.633e-07
1.2501e-06
3.14243e-06
1.5869e-06
1.73819e-06
8.73969e-07
2.56659e-07
2.25643e-07
2.28671e-07
2.23297e-07
2.14574e-07
2.21394e-07
2.7604e-07
3.40477e-07
2.19853e-07
1.44283e-07
1.35599e-07
1.58667e-07
2.2991e-07
3.92341e-07
8.09836e-07
2.24863e-06
4.21241e-06
1.89637e-06
2.96107e-06
1.23795e-06
2.79106e-07
2.03422e-07
1.98194e-07
1.98618e-07
2.11066e-07
2.58381e-07
3.85203e-07
4.30625e-07
4.61379e-07
2.50589e-07
1.66422e-07
1.74314e-07
2.8293e-07
5.70416e-07
1.27782e-06
3.27609e-06
4.74276e-06
2.34102e-06
4.38495e-06
1.54771e-06
3.24042e-07
2.02556e-07
1.88615e-07
1.91641e-07
2.15826e-07
2.98725e-07
5.38849e-07
5.16788e-07
7.09577e-07
3.77121e-07
2.04193e-07
1.94663e-07
3.44534e-07
7.75184e-07
1.8041e-06
3.93572e-06
4.98253e-06
2.92956e-06
5.70774e-06
1.77871e-06
3.79504e-07
2.17377e-07
1.93794e-07
1.92455e-07
2.12824e-07
3.05323e-07
6.67648e-07
5.92494e-07
9.55265e-07
5.20387e-07
2.54656e-07
2.70534e-07
4.88925e-07
1.05113e-06
2.17869e-06
4.14409e-06
5.04115e-06
3.5389e-06
6.49379e-06
1.84446e-06
4.42576e-07
2.65053e-07
2.34093e-07
2.22545e-07
2.23418e-07
2.8943e-07
6.16573e-07
6.56812e-07
1.2212e-06
6.94746e-07
4.44878e-07
5.74747e-07
8.44584e-07
1.35224e-06
2.35484e-06
4.05791e-06
5.05948e-06
4.04034e-06
6.47922e-06
1.74961e-06
6.07241e-07
4.67113e-07
4.24506e-07
3.8452e-07
3.35553e-07
3.36349e-07
5.08645e-07
6.80201e-07
1.53364e-06
1.13545e-06
1.22098e-06
1.51289e-06
1.79954e-06
2.19685e-06
2.96447e-06
4.32204e-06
5.55429e-06
4.8445e-06
5.85036e-06
2.61848e-06
1.73202e-06
1.52378e-06
1.31024e-06
1.06243e-06
8.07071e-07
5.95907e-07
5.48054e-07
7.07859e-07
1.81843e-06
2.45658e-06
3.08671e-06
3.80585e-06
4.65636e-06
5.72026e-06
7.13239e-06
8.93459e-06
1.05289e-05
1.0107e-05
9.96438e-06
6.93905e-06
5.0247e-06
3.81334e-06
2.94082e-06
2.27564e-06
1.7615e-06
1.36752e-06
1.05298e-06
7.64443e-07
4.20476e-08
6.99185e-08
8.89722e-08
1.02423e-07
1.15793e-07
1.24106e-07
1.35813e-07
1.84808e-07
2.71608e-07
1.19085e-07
1.18559e-07
3.4496e-07
3.33416e-07
3.26704e-07
3.19134e-07
3.05043e-07
2.81171e-07
2.47194e-07
2.08053e-07
1.73557e-07
5.88428e-08
6.53457e-08
7.8479e-08
9.32976e-08
1.14454e-07
1.4655e-07
2.0129e-07
3.469e-07
7.96297e-07
8.501e-07
5.27038e-07
2.93024e-07
2.8206e-07
2.98108e-07
3.22409e-07
3.45717e-07
3.45838e-07
3.01779e-07
2.57284e-07
2.48392e-07
1.00477e-07
8.6283e-08
9.39743e-08
1.10863e-07
1.38791e-07
1.86923e-07
3.00623e-07
6.74784e-07
1.43328e-06
1.73819e-06
1.16518e-06
3.70579e-07
2.26291e-07
2.305e-07
2.44128e-07
2.52017e-07
2.44719e-07
2.40262e-07
2.77682e-07
3.3873e-07
2.51043e-07
1.50299e-07
1.31265e-07
1.47146e-07
1.88158e-07
2.65125e-07
4.81826e-07
1.17616e-06
2.19181e-06
2.96107e-06
1.92933e-06
4.79308e-07
2.24751e-07
2.10211e-07
2.14832e-07
2.18502e-07
2.26009e-07
2.62636e-07
3.76629e-07
4.27457e-07
4.85628e-07
2.58707e-07
1.67462e-07
1.74612e-07
2.49721e-07
3.77563e-07
7.4123e-07
1.741e-06
3.06135e-06
4.38495e-06
2.63739e-06
6.08053e-07
2.46428e-07
2.11323e-07
2.07743e-07
2.09208e-07
2.26837e-07
2.96914e-07
5.12856e-07
5.09724e-07
7.19723e-07
3.84346e-07
2.04299e-07
1.96676e-07
3.0568e-07
5.06701e-07
1.04975e-06
2.25424e-06
3.92479e-06
5.70774e-06
3.15281e-06
7.32718e-07
2.86282e-07
2.30365e-07
2.16693e-07
2.11698e-07
2.24987e-07
3.02125e-07
6.18509e-07
5.81303e-07
9.52773e-07
5.34488e-07
2.50009e-07
2.6804e-07
4.19783e-07
6.8972e-07
1.31125e-06
2.6122e-06
4.52937e-06
6.49379e-06
3.3343e-06
8.24571e-07
3.57462e-07
2.88854e-07
2.62943e-07
2.44397e-07
2.37485e-07
2.89334e-07
5.70344e-07
6.42489e-07
1.20521e-06
7.04081e-07
4.42126e-07
5.46278e-07
7.15895e-07
9.7644e-07
1.56826e-06
2.82488e-06
4.73032e-06
6.47922e-06
3.1506e-06
9.43813e-07
5.87905e-07
5.28288e-07
4.707e-07
4.08007e-07
3.4368e-07
3.29898e-07
4.78776e-07
6.65372e-07
1.50032e-06
1.15616e-06
1.22288e-06
1.48526e-06
1.69269e-06
1.89375e-06
2.32383e-06
3.26341e-06
4.71018e-06
5.85036e-06
3.22248e-06
1.90881e-06
1.77061e-06
1.67111e-06
1.40841e-06
1.10024e-06
8.06851e-07
5.81147e-07
5.33101e-07
6.95036e-07
1.75593e-06
2.34524e-06
2.91264e-06
3.51713e-06
4.18871e-06
4.97844e-06
6.00236e-06
7.3752e-06
8.99438e-06
9.96438e-06
7.62547e-06
5.66912e-06
4.41515e-06
3.50556e-06
2.77904e-06
2.19097e-06
1.71791e-06
1.34236e-06
1.03721e-06
7.5556e-07
4.56449e-08
7.24335e-08
8.878e-08
9.73343e-08
1.02108e-07
1.09426e-07
1.41176e-07
2.01892e-07
2.8189e-07
3.34578e-07
3.4496e-07
3.48122e-07
3.46486e-07
3.47087e-07
3.44365e-07
3.34842e-07
3.15832e-07
2.85915e-07
2.4681e-07
2.06474e-07
6.54301e-08
6.8891e-08
7.9126e-08
8.96144e-08
1.04663e-07
1.27677e-07
1.65737e-07
2.31803e-07
3.60026e-07
4.42899e-07
2.93024e-07
2.67873e-07
2.72437e-07
2.87116e-07
3.14652e-07
3.48815e-07
3.74427e-07
3.65335e-07
3.07225e-07
2.4947e-07
1.29097e-07
9.26961e-08
9.08519e-08
1.00074e-07
1.15888e-07
1.39089e-07
1.8305e-07
2.92432e-07
5.70928e-07
8.73969e-07
3.70579e-07
2.2049e-07
2.14679e-07
2.24765e-07
2.40651e-07
2.55935e-07
2.60852e-07
2.57556e-07
2.84929e-07
3.39122e-07
2.905e-07
1.65353e-07
1.27599e-07
1.26588e-07
1.40359e-07
1.67232e-07
2.30957e-07
4.29734e-07
8.5917e-07
1.23795e-06
4.79308e-07
2.3428e-07
2.10439e-07
2.12381e-07
2.18099e-07
2.24835e-07
2.3339e-07
2.65613e-07
3.75865e-07
4.26066e-07
5.12453e-07
2.7757e-07
1.72618e-07
1.61497e-07
1.80499e-07
2.13501e-07
3.07117e-07
6.20059e-07
1.17195e-06
1.54771e-06
6.08053e-07
2.71649e-07
2.25169e-07
2.19063e-07
2.173e-07
2.1818e-07
2.31848e-07
2.93125e-07
4.92888e-07
5.05178e-07
7.32431e-07
4.10064e-07
2.09891e-07
1.8608e-07
2.25484e-07
2.74462e-07
4.12952e-07
8.08074e-07
1.44088e-06
1.77871e-06
7.32718e-07
3.27475e-07
2.60362e-07
2.45641e-07
2.34991e-07
2.25946e-07
2.32661e-07
2.96596e-07
5.75481e-07
5.74597e-07
9.52653e-07
5.46661e-07
2.49596e-07
2.54191e-07
3.23471e-07
3.84051e-07
5.42761e-07
9.39611e-07
1.56368e-06
1.84446e-06
8.24571e-07
4.12196e-07
3.40649e-07
3.18006e-07
2.926e-07
2.65702e-07
2.49649e-07
2.8802e-07
5.29346e-07
6.32429e-07
1.19263e-06
7.20828e-07
4.52462e-07
5.34652e-07
6.25662e-07
6.73623e-07
7.83479e-07
1.08499e-06
1.56443e-06
1.74961e-06
9.43813e-07
6.52265e-07
6.22466e-07
5.87528e-07
5.18566e-07
4.38406e-07
3.56808e-07
3.28038e-07
4.57562e-07
6.56966e-07
1.46904e-06
1.1803e-06
1.26876e-06
1.52814e-06
1.7096e-06
1.76835e-06
1.82566e-06
2.03374e-06
2.4168e-06
2.61848e-06
1.90881e-06
1.84873e-06
1.90417e-06
1.75981e-06
1.46677e-06
1.1383e-06
8.24124e-07
5.86036e-07
5.31474e-07
6.89399e-07
1.67969e-06
2.21355e-06
2.71665e-06
3.22231e-06
3.74181e-06
4.29107e-06
4.92445e-06
5.68445e-06
6.5091e-06
6.93905e-06
5.66912e-06
4.63609e-06
3.83298e-06
3.15816e-06
2.57373e-06
2.07551e-06
1.65535e-06
1.30629e-06
1.01498e-06
7.43907e-07
4.92959e-08
7.44433e-08
8.82122e-08
9.39512e-08
9.74582e-08
1.12891e-07
1.58059e-07
2.14988e-07
2.69666e-07
3.1075e-07
3.33416e-07
3.46486e-07
3.56326e-07
3.63326e-07
3.65282e-07
3.60109e-07
3.4568e-07
3.20466e-07
2.84167e-07
2.3454e-07
7.37858e-08
7.40853e-08
8.18228e-08
8.93199e-08
1.01031e-07
1.20053e-07
1.54185e-07
2.054e-07
2.56747e-07
2.82611e-07
2.8206e-07
2.72437e-07
2.67776e-07
2.75495e-07
2.94696e-07
3.22769e-07
3.52318e-07
3.64729e-07
3.3302e-07
2.51038e-07
1.56525e-07
1.04026e-07
9.22233e-08
9.51294e-08
1.0437e-07
1.17493e-07
1.39114e-07
1.81353e-07
2.33696e-07
2.56659e-07
2.26291e-07
2.14679e-07
2.1336e-07
2.1919e-07
2.31122e-07
2.45207e-07
2.55679e-07
2.6177e-07
2.92819e-07
3.40761e-07
3.25153e-07
1.86503e-07
1.3012e-07
1.1589e-07
1.17893e-07
1.26736e-07