/*--------------------------------*- C++ -*----------------------------------*\
  =========                 |
  \\      /  F ield         | OpenFOAM: The Open Source CFD Toolbox
   \\    /   O peration     | Website:  https://openfoam.org
    \\  /    A nd           | Version:  8
     \\/     M anipulation  |
\*---------------------------------------------------------------------------*/
FoamFile
{
    version     2.0;
    format      ascii;
    class       volScalarField;
    location    "800";
    object      k;
}
// * * * * * * * * * * * * * * * * * * * * * * * * * * * * * * * * * * * * * //

dimensions      [0 2 -2 0 0 0 0];

internalField   nonuniform List<scalar> 
4000
(
4.4902e-05
4.23239e-05
3.68129e-05
2.84145e-05
1.62993e-05
9.44358e-06
8.09075e-06
7.97159e-06
8.07887e-06
8.31751e-06
8.77138e-06
9.26391e-06
9.74893e-06
1.02106e-05
1.06141e-05
1.09481e-05
1.11901e-05
1.37774e-05
2.42807e-05
3.03694e-05
5.08115e-05
4.87482e-05
4.17996e-05
3.15368e-05
2.23587e-05
1.55968e-05
1.1345e-05
1.00571e-05
1.00569e-05
1.03931e-05
1.09579e-05
1.17547e-05
1.2763e-05
1.37733e-05
1.449e-05
1.43608e-05
1.32342e-05
1.61371e-05
2.65699e-05
3.52735e-05
5.47275e-05
5.41039e-05
4.87169e-05
3.95629e-05
3.08315e-05
2.39881e-05
1.87596e-05
1.52913e-05
1.35943e-05
1.3571e-05
1.56592e-05
1.85922e-05
2.12094e-05
2.32077e-05
2.43328e-05
2.40251e-05
2.25021e-05
2.34374e-05
3.3223e-05
3.84371e-05
5.74837e-05
5.85577e-05
5.56589e-05
4.9602e-05
4.3556e-05
3.87468e-05
3.47735e-05
3.0373e-05
2.64957e-05
2.65388e-05
2.90565e-05
3.2056e-05
3.45868e-05
3.63366e-05
3.72064e-05
3.7121e-05
3.6319e-05
3.65912e-05
3.99444e-05
4.07214e-05
5.98033e-05
6.28372e-05
6.27481e-05
6.06539e-05
5.79337e-05
5.50598e-05
5.18155e-05
4.78315e-05
4.36708e-05
4.35767e-05
4.51089e-05
4.67742e-05
4.8108e-05
4.88971e-05
4.90231e-05
4.84157e-05
4.72076e-05
4.59877e-05
4.51321e-05
4.27109e-05
6.20476e-05
6.71582e-05
6.98779e-05
7.08423e-05
7.06968e-05
6.94745e-05
6.70978e-05
6.36362e-05
5.92941e-05
5.80281e-05
5.86003e-05
5.93132e-05
5.97516e-05
5.97152e-05
5.90531e-05
5.76442e-05
5.54731e-05
5.26619e-05
4.92096e-05
4.42903e-05
6.43177e-05
7.15523e-05
7.67873e-05
8.01709e-05
8.20138e-05
8.22172e-05
8.0777e-05
7.78276e-05
7.31668e-05
7.07214e-05
7.06296e-05
7.06568e-05
7.04034e-05
6.96308e-05
6.81269e-05
6.57313e-05
6.23826e-05
5.80301e-05
5.25808e-05
4.55815e-05
6.67628e-05
7.63113e-05
8.3899e-05
8.95293e-05
9.33002e-05
9.49443e-05
9.43604e-05
9.18197e-05
8.69599e-05
8.32799e-05
8.25894e-05
8.20526e-05
8.11886e-05
7.96863e-05
7.72755e-05
7.37294e-05
6.89233e-05
6.29112e-05
5.56614e-05
4.67603e-05
6.96274e-05
8.17829e-05
9.17944e-05
9.94352e-05
0.000104916
0.00010797
0.000108373
0.000106535
0.000102011
9.69311e-05
9.55635e-05
9.42723e-05
9.25656e-05
9.00958e-05
8.65585e-05
8.17146e-05
7.5441e-05
6.79058e-05
5.89466e-05
4.81241e-05
7.29733e-05
8.60705e-05
9.66202e-05
0.000104201
0.000109637
0.000113236
0.000115165
0.00011548
0.00011367
0.000108647
0.000106168
0.0001031
9.94906e-05
9.53478e-05
9.06352e-05
8.52338e-05
7.89223e-05
7.14013e-05
6.19671e-05
5.00417e-05
4.23239e-05
4.43673e-05
3.70827e-05
2.70989e-05
1.55398e-05
1.15249e-05
1.12346e-05
1.1382e-05
1.15955e-05
1.1911e-05
1.22952e-05
1.25911e-05
1.28245e-05
1.3021e-05
1.3079e-05
1.28338e-05
1.25299e-05
1.57898e-05
2.52821e-05
3.08868e-05
4.87482e-05
6.35654e-05
5.70098e-05
3.78592e-05
2.66466e-05
2.24066e-05
2.03828e-05
1.95523e-05
1.94875e-05
1.96315e-05
1.97644e-05
1.97217e-05
1.96009e-05
1.94016e-05
1.87827e-05
1.72661e-05
1.70268e-05
2.26981e-05
3.58545e-05
3.61574e-05
5.41039e-05
7.02871e-05
7.45154e-05
5.93766e-05
4.06218e-05
2.98947e-05
2.49805e-05
2.33366e-05
2.29461e-05
2.25211e-05
2.20062e-05
2.17862e-05
2.19057e-05
2.21919e-05
2.22924e-05
2.19211e-05
2.26446e-05
3.07865e-05
5.67945e-05
3.96714e-05
5.85577e-05
7.14304e-05
7.53162e-05
6.73421e-05
5.32013e-05
4.05304e-05
3.2709e-05
2.79689e-05
2.55731e-05
2.53487e-05
2.62558e-05
2.748e-05
2.89551e-05
3.07533e-05
3.25688e-05
3.42688e-05
3.70571e-05
4.55776e-05
6.2599e-05
4.18632e-05
6.28372e-05
7.49357e-05
7.93925e-05
7.57724e-05
6.72303e-05
5.65319e-05
4.62654e-05
3.91515e-05
3.45441e-05
3.3593e-05
3.46159e-05
3.66379e-05
3.97314e-05
4.28451e-05
4.5702e-05
4.82925e-05
5.12767e-05
5.69028e-05
6.14031e-05
4.3612e-05
6.71582e-05
7.98527e-05
8.5229e-05
8.57927e-05
8.35215e-05
7.7517e-05
6.71527e-05
5.50098e-05
4.82146e-05
4.67366e-05
4.8394e-05
5.27462e-05
5.65396e-05
5.93958e-05
6.14369e-05
6.27126e-05
6.34433e-05
6.30837e-05
5.99384e-05
4.51041e-05
7.15523e-05
8.61753e-05
9.27933e-05
9.59947e-05
9.86285e-05
9.87599e-05
9.52588e-05
8.72575e-05
7.61033e-05
7.3902e-05
7.61505e-05
7.72829e-05
7.80282e-05
7.8318e-05
7.77773e-05
7.58392e-05
7.22256e-05
6.70366e-05
5.98428e-05
4.67967e-05
7.63113e-05
9.48748e-05
0.000103821
0.000109367
0.000113566
0.000114866
0.000112192
0.000106529
9.83115e-05
9.39849e-05
9.36692e-05
9.403e-05
9.42948e-05
9.35317e-05
9.10174e-05
8.6346e-05
7.97912e-05
7.18267e-05
6.26674e-05
4.90363e-05
8.17829e-05
0.000105051
0.00012086
0.000132985
0.000142137
0.000146902
0.00014519
0.000139193
0.000129923
0.000121216
0.000119804
0.000120017
0.000120032
0.000118182
0.000113318
0.000105003
9.35496e-05
8.10788e-05
6.87218e-05
5.2116e-05
8.60705e-05
0.000101418
0.000114164
0.000123849
0.000131229
0.000136464
0.000139594
0.000140596
0.000139063
0.00013277
0.000128749
0.000123914
0.000118444
0.000112399
0.000105718
9.82485e-05
8.97637e-05
8.01002e-05
6.86467e-05
5.49581e-05
3.68129e-05
3.70827e-05
3.12085e-05
2.13341e-05
1.30546e-05
1.25478e-05
1.30085e-05
1.3394e-05
1.38732e-05
1.42586e-05
1.44513e-05
1.44388e-05
1.43825e-05
1.43778e-05
1.42077e-05
1.3696e-05
1.33865e-05
1.7407e-05
2.59549e-05
3.1139e-05
4.17996e-05
5.70098e-05
4.41471e-05
3.12285e-05
2.57254e-05
2.48636e-05
2.39e-05
2.41647e-05
2.50867e-05
2.57255e-05
2.56665e-05
2.50514e-05
2.43261e-05
2.34252e-05
2.16949e-05
1.91043e-05
2.00042e-05
2.54688e-05
3.71159e-05
3.63851e-05
4.87169e-05
7.45154e-05
7.30403e-05
5.32287e-05
3.85091e-05
3.14951e-05
2.95883e-05
2.99301e-05
3.06695e-05
3.07214e-05
2.95786e-05
2.77304e-05
2.59419e-05
2.43427e-05
2.26768e-05
2.15921e-05
2.3782e-05
3.42657e-05
6.3576e-05
4.01206e-05
5.56589e-05
7.53162e-05
7.76038e-05
6.62377e-05
5.02489e-05
3.8695e-05
3.21945e-05
2.96564e-05
3.01062e-05
3.18555e-05
3.23945e-05
3.10461e-05
2.92215e-05
2.81359e-05
2.78369e-05
2.83532e-05
3.14296e-05
4.38612e-05
7.50486e-05
4.24342e-05
6.27481e-05
7.93925e-05
7.91559e-05
7.09235e-05
5.8607e-05
4.71041e-05
3.84394e-05
3.32094e-05
3.12826e-05
3.20096e-05
3.33107e-05
3.39443e-05
3.41468e-05
3.44485e-05
3.51994e-05
3.65598e-05
4.00466e-05
5.2673e-05
7.47431e-05
4.41714e-05
6.98779e-05
8.5229e-05
8.3662e-05
7.62446e-05
6.65839e-05
5.66896e-05
4.75006e-05
4.02162e-05
3.66285e-05
3.65077e-05
3.79228e-05
3.94132e-05
4.04246e-05
4.12916e-05
4.23055e-05
4.37428e-05
4.67776e-05
5.71446e-05
6.96887e-05
4.60119e-05
7.67873e-05
9.27933e-05
9.202e-05
8.47123e-05
7.52513e-05
6.72225e-05
6.05043e-05
5.44176e-05
5.03463e-05
4.96382e-05
5.0681e-05
5.16181e-05
5.21814e-05
5.24196e-05
5.22617e-05
5.19084e-05
5.34492e-05
5.94206e-05
6.50302e-05
4.85325e-05
8.3899e-05
0.000103821
0.000110079
0.000109681
0.00010732
0.000103006
9.81296e-05
9.0961e-05
8.34518e-05
7.9759e-05
8.06092e-05
8.22162e-05
8.36924e-05
8.43599e-05
8.32182e-05
7.90482e-05
7.28715e-05
6.89422e-05
6.61104e-05
5.20866e-05
9.17944e-05
0.00012086
0.000147074
0.000168809
0.000182597
0.000189188
0.000182802
0.000170159
0.000155415
0.000144011
0.000144365
0.000147751
0.000151275
0.000150972
0.000144795
0.000132534
0.000114301
9.40383e-05
7.59105e-05
5.65363e-05
9.66202e-05
0.000114164
0.000128717
0.000140186
0.000149278
0.000156016
0.00016048
0.000162512
0.000161515
0.000154602
0.00014875
0.000142032
0.000134708
0.000126918
0.00011848
0.000109191
9.8842e-05
8.75333e-05
7.48097e-05
6.01404e-05
2.84145e-05
2.70989e-05
2.13341e-05
1.39771e-05
1.21249e-05
1.3131e-05
1.38094e-05
1.46722e-05
1.56183e-05
1.61173e-05
1.58948e-05
1.53763e-05
1.50234e-05
1.49313e-05
1.46639e-05
1.40384e-05
1.40642e-05
1.90206e-05
2.64361e-05
3.10614e-05
3.15368e-05
3.78592e-05
3.12285e-05
2.57272e-05
2.46833e-05
2.41667e-05
2.48609e-05
2.73107e-05
2.99588e-05
3.11975e-05
3.04459e-05
2.86572e-05
2.69094e-05
2.52054e-05
2.262e-05
1.97519e-05
2.13776e-05
2.63282e-05
3.53696e-05
3.61404e-05
3.95629e-05
5.93766e-05
5.32287e-05
4.15479e-05
3.40867e-05
3.16035e-05
3.18826e-05
3.38315e-05
3.6864e-05
3.84595e-05
3.6725e-05
3.31833e-05
2.99538e-05
2.71672e-05
2.4396e-05
2.27273e-05
2.48922e-05
3.52619e-05
6.23297e-05
4.02558e-05
4.9602e-05
6.73421e-05
6.62377e-05
5.51965e-05
4.3981e-05
3.64536e-05
3.30444e-05
3.38601e-05
3.83427e-05
4.28012e-05
4.24828e-05
3.77703e-05
3.2992e-05
2.96406e-05
2.74141e-05
2.65192e-05
2.94225e-05
4.35011e-05
8.01532e-05
4.32678e-05
6.06539e-05
7.57724e-05
7.09235e-05
6.13037e-05
5.05302e-05
4.16026e-05
3.57458e-05
3.3922e-05
3.68729e-05
4.21317e-05
4.44267e-05
4.20942e-05
3.77873e-05
3.4182e-05
3.19422e-05
3.12957e-05
3.42729e-05
4.95808e-05
8.55044e-05
4.57701e-05
7.08423e-05
8.57927e-05
7.62446e-05
6.50851e-05
5.51574e-05
4.69168e-05
4.07949e-05
3.80966e-05
4.02519e-05
4.52322e-05
4.80019e-05
4.67105e-05
4.3403e-05
4.0009e-05
3.72337e-05
3.59335e-05
3.79189e-05
5.24383e-05
8.22917e-05
4.83847e-05
8.01709e-05
9.59947e-05
8.47123e-05
7.05361e-05
6.26953e-05
5.81035e-05
5.52107e-05
5.43094e-05
5.64904e-05
6.04662e-05
6.2523e-05
6.11581e-05
5.8137e-05
5.43339e-05
4.97579e-05
4.50051e-05
4.30901e-05
5.37459e-05
7.54561e-05
5.16799e-05
8.95293e-05
0.000109367
0.000109681
0.000104298
0.00010747
0.000111486
0.000111147
0.000107474
0.000103409
0.000100231
9.89703e-05
9.77818e-05
9.69464e-05
9.4736e-05
8.91354e-05
7.92643e-05
6.79153e-05
6.6933e-05
7.28954e-05
5.57559e-05
9.94352e-05
0.000132985
0.000168809
0.000199034
0.000211759
0.000215281
0.000209251
0.000197152
0.000184306
0.000171765
0.000169772
0.000172216
0.000175755
0.000176694
0.000171729
0.000157913
0.000134864
0.000108979
8.32959e-05
6.06997e-05
0.000104201
0.000123849
0.000140186
0.000153538
0.00016479
0.000173444
0.000179625
0.00018349
0.000184463
0.000177774
0.000168678
0.000159147
0.000149603
0.000139843
0.000129513
0.000118346
0.000106108
9.33041e-05
7.95063e-05
6.4002e-05
1.62993e-05
1.55398e-05
1.30546e-05
1.21249e-05
1.2589e-05
1.3208e-05
1.42548e-05
1.59994e-05
1.78244e-05
1.83222e-05
1.72779e-05
1.58995e-05
1.53971e-05
1.56143e-05
1.54332e-05
1.46452e-05
1.51161e-05
2.0863e-05
2.65885e-05
3.05858e-05
2.23587e-05
2.66466e-05
2.57254e-05
2.46833e-05
2.31296e-05
2.32085e-05
2.60968e-05
3.10776e-05
3.60895e-05
3.75963e-05
3.49632e-05
3.13434e-05
2.82916e-05
2.5743e-05
2.24696e-05
1.97358e-05
2.13571e-05
2.63948e-05
3.3856e-05
3.54093e-05
3.08315e-05
4.06218e-05
3.85091e-05
3.40867e-05
3.18482e-05
3.13423e-05
3.29019e-05
3.83411e-05
4.58585e-05
4.86248e-05
4.39486e-05
3.76966e-05
3.26852e-05
2.87567e-05
2.53709e-05
2.31611e-05
2.50297e-05
3.45294e-05
5.62611e-05
3.98935e-05
4.3556e-05
5.32013e-05
5.02489e-05
4.3981e-05
3.82082e-05
3.48187e-05
3.52126e-05
4.14145e-05
5.25522e-05
5.95192e-05
5.40902e-05
4.40333e-05
3.65905e-05
3.1659e-05
2.8134e-05
2.63254e-05
2.88394e-05
4.29505e-05
7.90018e-05
4.3837e-05
5.79337e-05
6.72303e-05
5.8607e-05
5.05302e-05
4.33795e-05
3.81598e-05
3.65887e-05
4.19756e-05
5.50775e-05
6.59835e-05
6.34821e-05
5.17536e-05
4.21473e-05
3.58582e-05
3.17839e-05
2.98225e-05
3.21872e-05
4.84703e-05
9.16938e-05
4.74352e-05
7.06968e-05
8.35215e-05
6.65839e-05
5.51574e-05
4.75843e-05
4.27468e-05
4.1896e-05
4.85045e-05
6.31344e-05
7.50493e-05
7.24881e-05
6.04872e-05
4.95832e-05
4.22796e-05
3.71061e-05
3.39239e-05
3.47033e-05
5.03416e-05
9.3941e-05
5.09641e-05
8.20138e-05
9.86285e-05
7.52513e-05
6.26953e-05
5.91853e-05
5.99199e-05
6.41301e-05
7.34287e-05
8.73968e-05
9.58234e-05
8.99933e-05
7.74071e-05
6.70328e-05
5.92385e-05
5.1914e-05
4.4774e-05
4.02985e-05
5.18347e-05
8.63689e-05
5.48647e-05
9.33002e-05
0.000113566
0.00010732
0.00010747
0.000118842
0.0001276
0.000131216
0.000133687
0.000136774
0.000133301
0.000122357
0.000112583
0.000108526
0.000105021
9.76264e-05
8.46272e-05
6.93161e-05
6.71418e-05
8.03985e-05
5.89364e-05
0.000104916
0.000142137
0.000182597
0.000211759
0.000229245
0.000233855
0.000227648
0.000217983
0.00020976
0.000197316
0.000188821
0.00018829
0.000193381
0.000196318
0.000191398
0.000174646
0.000145395
0.000116982
8.86973e-05
6.37759e-05
0.000109637
0.000131229
0.000149278
0.00016479
0.000178095
0.000188782
0.000197574
0.000204708
0.000209013
0.000203372
0.000189534
0.000175829
0.000163234
0.000151138
0.000138834
0.000125921
0.000112069
9.75318e-05
8.27987e-05
6.65838e-05
9.44358e-06
1.15249e-05
1.25478e-05
1.3131e-05
1.3208e-05
1.36838e-05
1.51062e-05
1.77705e-05
2.05392e-05
2.04672e-05
1.81156e-05
1.66359e-05
1.69338e-05
1.77786e-05
1.77817e-05
1.67595e-05
1.69865e-05
2.19215e-05
2.6213e-05
2.95946e-05
1.55968e-05
2.24066e-05
2.48636e-05
2.41667e-05
2.32085e-05
2.46654e-05
2.91715e-05
3.65413e-05
4.44588e-05
4.50165e-05
3.92163e-05
3.32536e-05
2.89678e-05
2.59602e-05
2.31136e-05
2.08436e-05
2.12999e-05
2.60737e-05
3.23735e-05
3.4209e-05
2.39881e-05
2.98947e-05
3.14951e-05
3.16035e-05
3.13423e-05
3.17509e-05
3.65856e-05
4.78486e-05
6.1632e-05
6.26535e-05
5.1934e-05
4.12426e-05
3.39647e-05
2.90705e-05
2.55413e-05
2.36289e-05
2.50389e-05
3.32874e-05
5.0144e-05
3.9023e-05
3.87468e-05
4.05304e-05
3.8695e-05
3.64536e-05
3.48187e-05
3.54471e-05
4.17711e-05
5.77996e-05
7.96842e-05
8.39281e-05
6.70462e-05
4.96444e-05
3.8851e-05
3.25718e-05
2.85663e-05
2.66794e-05
2.89126e-05
4.18313e-05
7.24951e-05
4.3808e-05
5.50598e-05
5.65319e-05
4.71041e-05
4.16026e-05
3.81598e-05
3.77161e-05
4.50278e-05
6.61973e-05
9.6594e-05
0.000105707
8.40688e-05
5.95298e-05
4.48269e-05
3.69706e-05
3.23261e-05
2.99998e-05
3.20811e-05
4.80756e-05
9.19054e-05
4.8499e-05
6.94745e-05
7.7517e-05
5.66896e-05
4.69168e-05
4.27468e-05
4.37751e-05
5.49989e-05
8.24114e-05
0.000118774
0.000128648
0.000101458
7.09585e-05
5.30384e-05
4.37019e-05
3.79758e-05
3.43563e-05
3.46044e-05
5.0294e-05
0.000101908
5.2917e-05
8.22172e-05
9.87599e-05
6.72225e-05
5.81035e-05
5.99199e-05
6.88387e-05
8.67756e-05
0.000117832
0.000152992
0.000155619
0.000122186
8.79579e-05
7.01438e-05
6.0697e-05
5.32689e-05
4.62109e-05
4.1202e-05
5.25221e-05
9.44552e-05
5.73516e-05
9.49443e-05
0.000114866
0.000103006
0.000111486
0.0001276
0.00014056
0.000152681
0.00017022
0.00018638
0.000179374
0.000147529
0.000119271
0.000110253
0.000106954
0.000100051
8.73719e-05
7.15085e-05
6.94695e-05
8.61331e-05
6.10784e-05
0.00010797
0.000146902
0.000189188
0.000215281
0.000233855
0.000238376
0.00023652
0.000237025
0.000238851
0.000227036
0.000204277
0.000193121
0.000197852
0.00020342
0.000199735
0.000182346
0.000150906
0.000119689
9.19641e-05
6.55498e-05
0.000113236
0.000136464
0.000156016
0.000173444
0.000188782
0.000202356
0.000215279
0.000227628
0.000237018
0.000233304
0.000212701
0.000192666
0.000175729
0.000160574
0.000145893
0.000131096
0.000115818
0.000100163
8.46441e-05
6.79276e-05
8.09075e-06
1.12346e-05
1.30085e-05
1.38094e-05
1.42548e-05
1.51062e-05
1.69051e-05
2.00085e-05
2.27293e-05
2.08583e-05
1.9197e-05
1.96623e-05
2.11921e-05
2.1667e-05
2.11735e-05
1.98438e-05
1.86366e-05
2.15477e-05
2.49685e-05
2.78122e-05
1.1345e-05
2.03828e-05
2.39e-05
2.48609e-05
2.60968e-05
2.91715e-05
3.49405e-05
4.43121e-05
5.70518e-05
5.48565e-05
4.40666e-05
3.5894e-05
3.16911e-05
2.90829e-05
2.61751e-05
2.35268e-05
2.26392e-05
2.54584e-05
3.04962e-05
3.26302e-05
1.87596e-05
2.49805e-05
2.95883e-05
3.18826e-05
3.29019e-05
3.65856e-05
4.67098e-05
6.5739e-05
8.81219e-05
8.47903e-05
6.42309e-05
4.56365e-05
3.54532e-05
3.0081e-05
2.69408e-05
2.52993e-05
2.59621e-05
3.20225e-05
4.46342e-05
3.78293e-05
3.47735e-05
3.2709e-05
3.21945e-05
3.30444e-05
3.52126e-05
4.17711e-05
5.84176e-05
8.99123e-05
0.00012636
0.000123543
8.98404e-05
5.72873e-05
4.06357e-05
3.30966e-05
2.93635e-05
2.79445e-05
2.99288e-05
4.06424e-05
6.48915e-05
4.32755e-05
5.18155e-05
4.62654e-05
3.84394e-05
3.57458e-05
3.65887e-05
4.50278e-05
6.99753e-05
0.000117262
0.00016948
0.000167436
0.000118813
7.09401e-05
4.74256e-05
3.77528e-05
3.31428e-05
3.11696e-05
3.33459e-05
4.79664e-05
8.71864e-05
4.86962e-05
6.70978e-05
6.71527e-05
4.75006e-05
4.07949e-05
4.1896e-05
5.49989e-05
9.03002e-05
0.000152875
0.000213119
0.000209332
0.000147723
8.64262e-05
5.6274e-05
4.47147e-05
3.90597e-05
3.57759e-05
3.62187e-05
5.137e-05
0.000104202
5.3687e-05
8.0777e-05
9.52588e-05
6.05043e-05
5.52107e-05
6.41301e-05
8.67756e-05
0.000129738
0.00019734
0.000245072
0.000236658
0.000170453
0.000103336
7.1526e-05
6.02938e-05
5.36903e-05
4.77393e-05
4.34366e-05
5.4331e-05
9.8574e-05
5.84245e-05
9.43604e-05
0.000112192
9.81296e-05
0.000111147
0.000131216
0.000152681
0.000183301
0.000226368
0.000257759
0.000248303
0.000190645
0.000128256
0.000106557
0.000102368
9.69833e-05
8.68552e-05
7.25539e-05
7.10309e-05
8.84628e-05
6.16271e-05
0.000108373
0.00014519
0.000182802
0.000209251
0.000227648
0.00023652
0.000247441
0.000267553
0.000285308
0.000275671
0.000232379
0.000196334
0.000193437
0.000198947
0.000195715
0.000178799
0.000147743
0.000116788
9.14477e-05
6.55712e-05
0.000115165
0.000139594
0.00016048
0.000179625
0.000197574
0.000215279
0.000234172
0.000254059
0.000270772
0.00027034
0.000241022
0.00021124
0.000187875
0.000168521
0.000150843
0.000133868
0.000117131
0.000100726
8.4842e-05
6.80539e-05
7.97159e-06
1.1382e-05
1.3394e-05
1.46722e-05
1.59994e-05
1.77705e-05
2.00085e-05
2.26258e-05
2.48236e-05
2.36686e-05
2.35296e-05
2.4938e-05
2.60471e-05
2.58007e-05
2.48633e-05
2.31224e-05
2.09253e-05
2.00129e-05
2.22111e-05
2.45678e-05
1.00571e-05
1.95523e-05
2.41647e-05
2.73107e-05
3.10776e-05
3.65413e-05
4.43121e-05
5.72169e-05
7.92917e-05
7.572e-05
5.60337e-05
4.24992e-05
3.82914e-05
3.56593e-05
3.25341e-05
2.84174e-05
2.54314e-05
2.52201e-05
2.83111e-05
3.09409e-05
1.52913e-05
2.33366e-05
2.99301e-05
3.38315e-05
3.83411e-05
4.78486e-05
6.5739e-05
9.5585e-05
0.000137196
0.000139997
9.44274e-05
5.65777e-05
4.07479e-05
3.43184e-05
3.07249e-05
2.84979e-05
2.79166e-05
3.13125e-05
3.99537e-05
3.66535e-05
3.0373e-05
2.79689e-05
2.96564e-05
3.38601e-05
4.14145e-05
5.77996e-05
8.99123e-05
0.000143296
0.000207789
0.000212902
0.000139657
7.61659e-05
4.57987e-05
3.57465e-05
3.18232e-05
3.04531e-05
3.18616e-05
3.98886e-05
5.78317e-05
4.25308e-05
4.78315e-05
3.91515e-05
3.32094e-05
3.3922e-05
4.19756e-05
6.61973e-05
0.000117262
0.000198782
0.000279866
0.000279506
0.000185079
9.92989e-05
5.40228e-05
4.00806e-05
3.51083e-05
3.34106e-05
3.55854e-05
4.81843e-05
8.09929e-05
4.82234e-05
6.36362e-05
5.50098e-05
4.02162e-05
3.80966e-05
4.85045e-05
8.24114e-05
0.000152875
0.000256691
0.000330916
0.000323386
0.000224328
0.000121006
6.42748e-05
4.71516e-05
4.09617e-05
3.79806e-05
3.87911e-05
5.29119e-05
0.00010223
5.33076e-05
7.78276e-05
8.72575e-05
5.44176e-05
5.43094e-05
7.34287e-05
0.000117832
0.00019734
0.000287931
0.000347282
0.000341765
0.000252044
0.000137038
7.74603e-05
6.07035e-05
5.42073e-05
4.9257e-05
4.60443e-05
5.62756e-05
9.89571e-05
5.79226e-05
9.18197e-05
0.000106529
9.0961e-05
0.000107474
0.000133687
0.00017022
0.000226368
0.000296073
0.000344967
0.000342552
0.000269571
0.000152574
0.000104453
9.54626e-05
9.09647e-05
8.32808e-05
7.20627e-05
7.11278e-05
8.75953e-05
6.04973e-05
0.000106535
0.000139193
0.000170159
0.000197152
0.000217983
0.000237025
0.000267553
0.000313493
0.000353465
0.000350955
0.000289179
0.000209484
0.000187531
0.000187141
0.000181688
0.000164806
0.000136591
0.000108872
8.69808e-05
6.38259e-05
0.00011548
0.000140596
0.000162512
0.00018349
0.000204708
0.000227628
0.000254059
0.000283551
0.000309778
0.000314279
0.000276628
0.000232542
0.000199919
0.00017491
0.000153507
0.000134027
0.000115847
9.9012e-05
8.32454e-05
6.68931e-05
8.07887e-06
1.15955e-05
1.38732e-05
1.56183e-05
1.78244e-05
2.05392e-05
2.27293e-05
2.48236e-05
2.84463e-05
2.94869e-05
3.04502e-05
3.12296e-05
3.03313e-05
2.95924e-05
2.85369e-05
2.68063e-05
2.42746e-05
2.13523e-05
1.93946e-05
2.01683e-05
1.00569e-05
1.94875e-05
2.50867e-05
2.99588e-05
3.60895e-05
4.44588e-05
5.70518e-05
7.92917e-05
0.000116686
0.000126929
8.88443e-05
5.8081e-05
4.64447e-05
4.36773e-05
4.09671e-05
3.66978e-05
3.09439e-05
2.74908e-05
2.74885e-05
2.92293e-05
1.35943e-05
2.29461e-05
3.06695e-05
3.6864e-05
4.58585e-05
6.1632e-05
8.81219e-05
0.000137196
0.000210382
0.00022246
0.000144504
8.62209e-05
4.91844e-05
4.13795e-05
3.70415e-05
3.34824e-05
3.10925e-05
3.18332e-05
3.70784e-05
3.58352e-05
2.64957e-05
2.55731e-05
3.01062e-05
3.83427e-05
5.25522e-05
7.96842e-05
0.00012636
0.000207789
0.000294367
0.000288532
0.000201741
0.00011665
5.52817e-05
4.15767e-05
3.65255e-05
3.42304e-05
3.44875e-05
3.98699e-05
5.27679e-05
4.1894e-05
4.36708e-05
3.45441e-05
3.12826e-05
3.68729e-05
5.50775e-05
9.6594e-05
0.00016948
0.000279866
0.000350918
0.000328662
0.000260575
0.000146648
6.46296e-05
4.50932e-05
3.89663e-05
3.67953e-05
3.84154e-05
4.87849e-05
7.56725e-05
4.75135e-05
5.92941e-05
4.82146e-05
3.66285e-05
4.02519e-05
6.31344e-05
0.000118774
0.000213119
0.000330916
0.000377986
0.000354267
0.000315212
0.000171934
7.55867e-05
5.17715e-05
4.44178e-05
4.1202e-05
4.19411e-05
5.45777e-05
9.88284e-05
5.23337e-05
7.31668e-05
7.61033e-05
5.03463e-05
5.64904e-05
8.73968e-05
0.000152992
0.000245072
0.000347282
0.000385692
0.000369757
0.000353958
0.000185746
8.7111e-05
6.34428e-05
5.60982e-05
5.14877e-05
4.89381e-05
5.81201e-05
9.71111e-05
5.63999e-05
8.69599e-05
9.83115e-05
8.34518e-05
0.000103409
0.000136774
0.00018638
0.000257759
0.000344967
0.00038913
0.000381773
0.000370977
0.000189134
0.000107076
9.11173e-05
8.56911e-05
7.94272e-05
7.08716e-05
7.03023e-05
8.53057e-05
5.81275e-05
0.000102011
0.000129923
0.000155415
0.000184306
0.00020976
0.000238851
0.000285308
0.000353465
0.000408963
0.000407353
0.000366166
0.000233008
0.000185577
0.000175062
0.00016416
0.000145931
0.000122142
9.87323e-05
8.07842e-05
6.03049e-05
0.00011367
0.000139063
0.000161515
0.000184463
0.000209013
0.000237018
0.000270772
0.000309778
0.000344242
0.000350789
0.00031596
0.000254659
0.000210595
0.000178955
0.000153434
0.000131398
0.000111999
9.49402e-05
7.95313e-05
6.36927e-05
8.31751e-06
1.1911e-05
1.42586e-05
1.61173e-05
1.83222e-05
2.04672e-05
2.08583e-05
2.36686e-05
2.94869e-05
3.52429e-05
3.70469e-05
3.50493e-05
3.3369e-05
3.25225e-05
3.16346e-05
3.02228e-05
2.80214e-05
2.50853e-05
2.18517e-05
1.89915e-05
1.03931e-05
1.96315e-05
2.57255e-05
3.11975e-05
3.75963e-05
4.50165e-05
5.48565e-05
7.572e-05
0.000126929
0.000117889
0.000104917
7.08888e-05
5.18497e-05
4.97385e-05
4.81504e-05
4.54982e-05
3.97535e-05
3.29874e-05
2.95264e-05
2.86299e-05
1.3571e-05
2.25211e-05
3.07214e-05
3.84595e-05
4.86248e-05
6.26535e-05
8.47903e-05
0.000139997
0.00022246
0.000150367
0.000172863
0.000116262
5.39612e-05
4.65006e-05
4.33478e-05
3.93583e-05
3.54581e-05
3.36407e-05
3.6155e-05
3.54393e-05
2.65388e-05
2.53487e-05
3.18555e-05
4.28012e-05
5.95192e-05
8.39281e-05
0.000123543
0.000212902
0.000288532
0.000176676
0.000251182
0.000149241
6.00562e-05
4.67453e-05
4.19714e-05
3.86845e-05
3.75193e-05
4.05927e-05
5.01702e-05
4.15022e-05
4.35767e-05
3.3593e-05
3.20096e-05
4.21317e-05
6.59835e-05
0.000105707
0.000167436
0.000279506
0.000328662
0.00020953
0.000331532
0.000175929
6.90596e-05
5.03874e-05
4.4011e-05
4.09186e-05
4.14705e-05
4.97277e-05
7.24494e-05
4.69168e-05
5.80281e-05
4.67366e-05
3.65077e-05
4.52322e-05
7.50493e-05
0.000128648
0.000209332
0.000323386
0.000354267
0.000249706
0.000401068
0.000196375
7.98253e-05
5.71391e-05
4.93973e-05
4.54337e-05
4.54349e-05
5.61687e-05
9.54709e-05
5.14302e-05
7.07214e-05
7.3902e-05
4.96382e-05
6.04662e-05
9.58234e-05
0.000155619
0.000236658
0.000341765
0.000369757
0.000290801
0.000443251
0.000205272
9.15057e-05
6.84652e-05
6.05054e-05
5.53354e-05
5.2459e-05
5.99616e-05
9.39633e-05
5.51003e-05
8.32799e-05
9.39849e-05
7.9759e-05
0.000100231
0.000133301
0.000179374
0.000248303
0.000342552
0.000381773
0.000326671
0.000448434
0.000201468
0.000110292
9.37966e-05
8.66578e-05
7.97249e-05
7.14755e-05
6.99476e-05
8.24881e-05
5.63792e-05
9.69311e-05
0.000121216
0.000144011
0.000171765
0.000197316
0.000227036
0.000275671
0.000350955
0.000407353
0.000370786
0.000415663
0.000242526
0.000185227
0.000170992
0.000155739
0.000136148
0.00011332
9.18178e-05
7.59273e-05
5.78974e-05
0.000108647
0.00013277
0.000154602
0.000177774
0.000203372
0.000233304
0.00027034
0.000314279
0.000350789
0.000340425
0.000338524
0.000265988
0.000214434
0.000178395
0.00015001
0.00012641
0.000106526
8.99382e-05
7.55416e-05
6.10113e-05
8.77138e-06
1.22952e-05
1.44513e-05
1.58948e-05
1.72779e-05
1.81156e-05
1.9197e-05
2.35296e-05
3.04502e-05
3.70469e-05
3.69088e-05
3.57767e-05
3.49895e-05
3.45296e-05
3.39852e-05
3.29621e-05
3.12005e-05
2.86164e-05
2.55002e-05
2.25881e-05
1.09579e-05
1.97644e-05
2.56665e-05
3.04459e-05
3.49632e-05
3.92163e-05
4.40666e-05
5.60337e-05
8.88443e-05
0.000104917
8.30652e-05
5.63088e-05
5.27495e-05
5.19265e-05
5.19331e-05
5.158e-05
4.85272e-05
4.09877e-05
3.37146e-05
2.86994e-05
1.56592e-05
2.20062e-05
2.95786e-05
3.6725e-05
4.39486e-05
5.1934e-05
6.42309e-05
9.44274e-05
0.000144504
0.000172863
0.000139903
7.19583e-05
5.15887e-05
4.86629e-05
4.68098e-05
4.42024e-05
3.99854e-05
3.63868e-05
3.65968e-05
3.53418e-05
2.90565e-05
2.62558e-05
3.23945e-05
4.24828e-05
5.40902e-05
6.70462e-05
8.98404e-05
0.000139657
0.000201741
0.000251182
0.000196688
8.74406e-05
5.56203e-05
4.95798e-05
4.59393e-05
4.25388e-05
4.0376e-05
4.18471e-05
4.98706e-05
4.13173e-05
4.51089e-05
3.46159e-05
3.33107e-05
4.44267e-05
6.34821e-05
8.40688e-05
0.000118813
0.000185079
0.000260575
0.000331532
0.000245364
0.000104187
6.3073e-05
5.40619e-05
4.87483e-05
4.48339e-05
4.42272e-05
5.07437e-05
7.10684e-05
4.6503e-05
5.86003e-05
4.8394e-05
3.79228e-05
4.80019e-05
7.24881e-05
0.000101458
0.000147723
0.000224328
0.000315212
0.000401068
0.000281097
0.000120569
7.33332e-05
6.19772e-05
5.51055e-05
5.00904e-05
4.88631e-05
5.74775e-05
9.19125e-05
5.07949e-05
7.06296e-05
7.61505e-05
5.0681e-05
6.2523e-05
8.99933e-05
0.000122186
0.000170453
0.000252044
0.000353958
0.000443251
0.000297436
0.000133652
8.67252e-05
7.49002e-05
6.72203e-05
6.06713e-05
5.64717e-05
6.17313e-05
9.01232e-05
5.43032e-05
8.25894e-05
9.36692e-05
8.06092e-05
9.89703e-05
0.000122357
0.000147529
0.000190645
0.000269571
0.000370977
0.000448434
0.000291822
0.000146095
0.000112224
0.000103473
9.47003e-05
8.4961e-05
7.45392e-05
7.0608e-05
7.976e-05
5.55672e-05
9.55635e-05
0.000119804
0.000144365
0.000169772
0.000188821
0.000204277
0.000232379
0.000289179
0.000366166
0.000415663
0.000287037
0.000203718
0.000192582
0.000184965
0.000165861
0.000141361
0.000114953
9.12834e-05
7.4283e-05
5.72136e-05
0.000106168
0.000128749
0.00014875
0.000168678
0.000189534
0.000212701
0.000241022
0.000276628
0.00031596
0.000338524
0.000283357
0.000232422
0.000196688
0.000168638
0.00014444
0.000123245
0.000104763
8.88508e-05
7.48084e-05
6.05564e-05
9.26391e-06
1.25911e-05
1.44388e-05
1.53763e-05
1.58995e-05
1.66359e-05
1.96623e-05
2.4938e-05
3.12296e-05
3.50493e-05
3.57767e-05
3.60077e-05
3.59181e-05
3.59665e-05
3.57748e-05
3.51045e-05
3.37523e-05
3.15747e-05
2.86213e-05
2.54208e-05
1.17547e-05
1.97217e-05
2.50514e-05
2.86572e-05
3.13434e-05
3.32536e-05
3.5894e-05
4.24992e-05
5.8081e-05
7.08888e-05
5.63088e-05
5.24092e-05
5.17812e-05
5.16523e-05
5.25245e-05
5.35008e-05
5.29651e-05
4.85969e-05
3.92692e-05
2.88289e-05
1.85922e-05
2.17862e-05
2.77304e-05
3.31833e-05
3.76966e-05
4.12426e-05
4.56365e-05
5.65777e-05
8.62209e-05
0.000116262
7.19583e-05
5.29974e-05
5.05444e-05
4.93232e-05
4.80443e-05
4.61615e-05
4.29486e-05
3.90562e-05
3.78593e-05
3.54045e-05
3.2056e-05
2.748e-05
3.10461e-05
3.77703e-05
4.40333e-05
4.96444e-05
5.72873e-05
7.61659e-05
0.00011665
0.000149241
8.74406e-05
5.96646e-05
5.47217e-05
5.18012e-05
4.84132e-05
4.49214e-05
4.22852e-05
4.29754e-05
5.06268e-05
4.12558e-05
4.67742e-05
3.66379e-05
3.39443e-05
4.20942e-05
5.17536e-05
5.95298e-05
7.09401e-05
9.92989e-05
0.000146648
0.000175929
0.000104187
6.96109e-05
6.20249e-05
5.7695e-05
5.2733e-05
4.79471e-05
4.62043e-05
5.1455e-05
7.02274e-05
4.62481e-05
5.93132e-05
5.27462e-05
3.94132e-05
4.67105e-05
6.04872e-05
7.09585e-05
8.64262e-05
0.000121006
0.000171934
0.000196375
0.000120569
8.1997e-05
7.25293e-05
6.72236e-05
6.09932e-05
5.4569e-05
5.17813e-05
5.84038e-05
8.85135e-05
5.04211e-05
7.06568e-05
7.72829e-05
5.16181e-05
6.11581e-05
7.74071e-05
8.79579e-05
0.000103336
0.000137038
0.000185746
0.000205272
0.000133652
9.65429e-05
8.74727e-05
8.19788e-05
7.46618e-05
6.64295e-05
6.0387e-05
6.32901e-05
8.65561e-05
5.37439e-05
8.20526e-05
9.403e-05
8.22162e-05
9.77818e-05
0.000112583
0.000119271
0.000128256
0.000152574
0.000189134
0.000201468
0.000146095
0.000121672
0.000117879
0.000112769
0.00010315
9.11817e-05
7.82079e-05
7.17631e-05
7.77742e-05
5.511e-05
9.42723e-05
0.000120017
0.000147751
0.000172216
0.00018829
0.000193121
0.000196334
0.000209484
0.000233008
0.000242526
0.000203718
0.000200173
0.000204114
0.00019458
0.000173298
0.000146804
0.000118111
9.26165e-05
7.41325e-05
5.69201e-05
0.0001031
0.000123914
0.000142032
0.000159147
0.000175829
0.000192666
0.00021124
0.000232542
0.000254659
0.000265988
0.000232422
0.0002032
0.000178982
0.000157301
0.000137235
0.00011888
0.000102214
8.72691e-05
7.37522e-05
5.99444e-05
9.74893e-06
1.28245e-05
1.43825e-05
1.50234e-05
1.53971e-05
1.69338e-05
2.11921e-05
2.60471e-05
3.03313e-05
3.3369e-05
3.49895e-05
3.59181e-05
3.66056e-05
3.70875e-05
3.72215e-05
3.68671e-05
3.58706e-05
3.40958e-05
3.1472e-05
2.77055e-05
1.2763e-05
1.96009e-05
2.43261e-05
2.69094e-05
2.82916e-05
2.89678e-05
3.16911e-05
3.82914e-05
4.64447e-05
5.18497e-05
5.27495e-05
5.17812e-05
5.0876e-05
5.08516e-05
5.14718e-05
5.2206e-05
5.21673e-05
4.95883e-05
4.21789e-05
2.89995e-05
2.12094e-05
2.19057e-05
2.59419e-05
2.99538e-05
3.26852e-05
3.39647e-05
3.54532e-05
4.07479e-05
4.91844e-05
5.39612e-05
5.15887e-05
5.05444e-05
5.01413e-05
4.95897e-05
4.85827e-05
4.67339e-05
4.38147e-05
4.03134e-05
3.92596e-05
3.55558e-05
3.45868e-05
2.89551e-05
2.92215e-05
3.2992e-05
3.65905e-05