/*--------------------------------*- C++ -*----------------------------------*\
  =========                 |
  \\      /  F ield         | OpenFOAM: The Open Source CFD Toolbox
   \\    /   O peration     | Website:  https://openfoam.org
    \\  /    A nd           | Version:  8
     \\/     M anipulation  |
\*---------------------------------------------------------------------------*/
FoamFile
{
    version     2.0;
    format      ascii;
    class       surfaceScalarField;
    location    "800";
    object      phi;
}
// * * * * * * * * * * * * * * * * * * * * * * * * * * * * * * * * * * * * * //

dimensions      [1 0 -1 0 0 0 0];

internalField   nonuniform List<scalar> 
11200
(
0.00375888
-0.00749296
0.00375888
0.0055826
-0.00521152
0.00338779
0.00524705
-0.0023292
0.00266476
0.00325821
0.00032971
0.00165919
0.00166317
0.000918126
0.000677074
0.00112363
0.00033985
0.000199713
0.00100244
5.85723e-05
6.26047e-05
0.000972698
2.89937e-05
7.16729e-07
0.000955462
7.98749e-05
-6.26686e-05
0.000963631
0.000120406
-0.000128606
0.00102886
0.000134178
-0.000199437
0.00115089
0.000121129
-0.000243193
0.00131662
6.85698e-05
-0.000234326
0.00148344
-1.79279e-05
-0.000148928
0.00158818
-0.000143937
3.91738e-05
0.00154546
-0.000264159
0.000306865
0.0010538
-0.000139664
0.000631313
-0.00139757
0.000855156
0.00159626
-0.00316627
-0.000534472
0.00230313
-0.00547018
0.00230388
0.00187946
-0.0112519
0.00187946
0.00307242
-0.00833917
0.00193469
0.00370173
-0.0046172
0.00165869
0.00383312
-0.0011099
0.00130828
0.00326902
0.000406919
0.00107535
0.00229298
0.000586126
0.000729762
0.00152207
0.00047062
0.000358841
0.00100281
0.000397061
0.000151179
0.000677013
0.00034865
5.70103e-05
0.00047672
0.000280362
4.0321e-05
0.00034384
0.000181643
8.53965e-05
0.000262799
1.18669e-06
0.000200965
0.000199574
-0.000258941
0.00039073
0.000103784
-0.000557918
0.000635788
-7.09702e-05
-0.000881473
0.000912306
-0.00037875
-0.00113283
0.00117647
-0.000893379
-0.000951373
0.00132635
-0.00164411
-0.000195154
0.00180105
-0.00154278
-0.00283916
0.00220333
-0.0089584
0.00194539
0.000905251
-0.0130624
0.000905251
0.00133264
-0.010076
0.00130945
0.00189888
-0.00656991
0.00138647
0.00276198
-0.00340102
0.00142804
0.00330026
-0.00155181
0.0014205
0.00327431
-0.000674634
0.00128674
0.00285069
-0.000161459
0.00105571
0.00219645
0.000217102
0.000834182
0.00144968
0.000406611
0.000688785
0.00087315
0.000197139
0.000659731
0.000569378
-0.000266973
0.000752375
0.000458186
-0.000804962
0.000917345
0.000394486
-0.00132346
0.00112823
0.000257087
-0.00179211
0.0013716
-6.24946e-05
-0.00220286
0.00164098
-0.000582548
-0.00252423
0.00191147
-0.00101325
-0.00260791
0.00208726
-0.000611184
-0.00286764
0.00227045
9.1244e-05
-0.00575762
0.00221599
-0.010653
0.00178578
0.00037462
-0.0138116
0.00037462
0.000150902
-0.0109231
0.00107078
8.77495e-05
-0.00791465
0.00140789
0.000407159
-0.00543216
0.00171174
0.000739777
-0.003807
0.00192257
0.000982333
-0.00283269
0.00191551
0.00118291
-0.00215346
0.00179144
0.00126643
-0.00150826
0.00164184
0.00115542
-0.00102103
0.00153864
0.00109913
-0.00124434
0.00149777
0.00118499
-0.00182074
0.0014679
0.00134948
-0.00243869
0.00146924
0.00149777
-0.00299644
0.00152471
0.00154039
-0.00347623
0.00164151
0.0014045
-0.00388315
0.00181619
0.00108386
-0.00423181
0.00202822
0.00084933
-0.00460001
0.00222662
0.00100197
-0.00536108
0.00234078
0.000873498
-0.00771208
0.00208291
-0.0114592
0.00167975
-1.09573e-05
-0.0137897
-1.09573e-05
-0.000626539
-0.0112464
0.000938954
-0.00111043
-0.00878802
0.00135726
-0.00125283
-0.00693892
0.00164917
-0.00119016
-0.00569934
0.00182967
-0.000987676
-0.00489183
0.00185666
-0.000636016
-0.00425902
0.0017539
-0.000142025
-0.00363239
0.00163014
0.000377428
-0.00311774
0.00157725
0.000949036
-0.00332956
0.00151361
0.00149938
-0.0038083
0.00143722
0.00197446
-0.00429117
0.00137741
0.00235325
-0.00472307
0.00134785
0.0026045
-0.00509387
0.00136638
0.0026817
-0.00542255
0.0014622
0.00256526
-0.00574093
0.00162556
0.00230521
-0.00616155
0.00182158
0.00202097
-0.00697329
0.00189644
0.00130947
-0.00877648
0.00177589
-0.0117134
0.00156359
-0.000274618
-0.0132405
-0.000274618
-0.00119026
-0.0111086
0.000777844
-0.0018941
-0.00921759
0.00113342
-0.00220038
-0.0079047
0.00127207
-0.00214827
-0.00703013
0.00127869
-0.00181305
-0.00644203
0.00121499
-0.00126071
-0.00594739
0.00113604
-0.000536816
-0.00542164
0.00106536
0.000265687
-0.00494809
0.00102786
0.00102656
-0.00505978
0.000969348
0.00173995
-0.00539839
0.000876701
0.0023916
-0.00570976
0.000766941
0.00294405
-0.00598047
0.000704963
0.00335875
-0.00621844
0.000709865
0.00358618
-0.00644987
0.000799902
0.00357464
-0.00670144
0.000972055
0.00327685
-0.00705887
0.00119511
0.00269604
-0.00774797
0.00135548
0.00163572
-0.00913582
0.00141966
-0.0114372
0.00135948
-0.000574826
-0.0120908
-0.000574826
-0.001738
-0.0103886
0.000443177
-0.00259154
-0.0090179
0.000653868
-0.00295431
-0.00813002
0.000588099
-0.00284721
-0.00752823
0.000391004
-0.00235184
-0.00709814
0.000160741
-0.0015762
-0.0067187
-4.32681e-06
-0.000639811
-0.00630665
-5.13754e-05
0.000286884
-0.00589229
1.75013e-05
0.00114133
-0.00590268
-1.15354e-05
0.00199041
-0.00612868
-0.000118787
0.00278477
-0.00631407
-0.000190049
0.003474
-0.00645356
-0.000216136
0.00401309
-0.00656509
-0.000192418
0.00435079
-0.00667922
-0.000108348
0.0044095
-0.00683937
7.92271e-05
0.0040727
-0.00713209
0.000410021
0.00329392
-0.00768762
0.000718441
0.00195092
-0.00874622
0.000953402
-0.0105385
0.00105229
-0.00102586
-0.0100391
-0.00102586
-0.00243966
-0.00871342
-0.000261397
-0.00339987
-0.00781472
-0.000242962
-0.00376129
-0.00732175
-0.000446852
-0.00355642
-0.00700368
-0.000729415
-0.00290236
-0.0067744
-0.0009778
-0.00191808
-0.00654186
-0.00116112
-0.000745406
-0.0062415
-0.00123782
0.000352841
-0.00583671
-0.00115382
0.00134092
-0.00578039
-0.00111036
0.00234646
-0.00596682
-0.0011674
0.00328642
-0.006067
-0.00118703
0.00408972
-0.00609614
-0.00116071
0.00471739
-0.006091
-0.00110175
0.00511806
-0.00608923
-0.000990652
0.00520634
-0.0061325
-0.000795126
0.00485382
-0.00627973
-0.000499834
0.00394393
-0.00661837
-0.000159357
0.00233127
-0.00736604
0.0002325
-0.00875311
0.000545848
-0.00182009
-0.00639888
-0.00182009
-0.00352751
-0.00560346
-0.00140253
-0.00455528
-0.00520135
-0.00158559
-0.00488048
-0.00507092
-0.00192562
-0.00457661
-0.00502121
-0.00228634
-0.00376049
-0.005002
-0.00258851
-0.0025385
-0.00495719
-0.00280665
-0.00104609
-0.00483354
-0.00290037
0.000401134
-0.00455266
-0.00273128
0.00168021
-0.00448733
-0.00257214
0.00295488
-0.00461817
-0.00262331
0.00408358
-0.00462594
-0.00256974
0.00500107
-0.00455351
-0.00246012
0.00569189
-0.0044455
-0.00233632
0.00612191
-0.00434058
-0.00217865
0.00621416
-0.00427001
-0.00195473
0.00583071
-0.00426123
-0.00163504
0.00479957
-0.00435083
-0.00123639
0.00291158
-0.00469535
-0.000782697
-0.00550127
-0.000340259
-0.00319943
-0.00319943
-0.00527309
-0.00352979
-0.00628186
-0.00419258
-0.00651424
-0.00483853
-0.00608978
-0.00544566
-0.00510192
-0.00598986
-0.00362999
-0.00642912
-0.00175193
-0.00671159
0.000340844
-0.00664543
0.0022498
-0.00639628
0.00393926
-0.00630763
0.0053032
-0.00598987
0.00635155
-0.00560184
0.00709101
-0.00518495
0.0075161
-0.00476565
0.00758237
-0.00433627
0.0071797
-0.00385855
0.006112
-0.00328311
0.00394397
-0.00252731
-0.00155729
0.00338779
-0.00521152
0.0055826
0.00501758
-0.00325958
0.00501758
0.00458503
-0.000698671
0.003796
0.00274128
0.00135871
0.00214433
0.0015229
0.00099144
0.000904143
0.00111221
0.000230089
0.000380322
0.00101819
-4.10479e-05
0.000197657
0.000962885
-3.68807e-05
9.28761e-05
0.000908049
-7.50764e-07
-7.1092e-06
0.000887708
2.26699e-06
-0.000110561
0.000934909
-2.03004e-05
-0.000226364
0.00105631
-4.30744e-05
-0.000321538
0.00124326
-7.24396e-05
-0.000348859
0.00146691
-0.000125921
-0.000246677
0.00166694
-0.000221748
6.08793e-05
0.00169433
-0.000302252
0.000581717
0.000953723
1.81132e-05
0.00135379
-0.0017875
0.00131908
0.00301842
-0.0032565
-0.000245589
0.00401768
-0.005001
0.00404834
0.00193469
-0.00833917
0.00307242
0.00329237
-0.00597494
0.00329237
0.0038878
-0.0025389
0.0029035
0.0039447
0.000276846
0.0023333
0.00316474
0.00102415
0.00182264
0.0021895
0.000796634
0.00113846
0.00145168
0.000459775
0.000595821
0.000979422
0.000289096
0.000297454
0.000678449
0.000203724
0.000153498
0.000485067
0.000119487
0.000116475
0.000357625
4.66946e-05
0.000145834
0.000274153
-1.08065e-05
0.000252163
0.000209209
-6.79917e-05
0.000451224
0.000142991
-0.000174563
0.000750652
3.44293e-05
-0.000335866
0.001135
-0.00024945
-0.000392964
0.00155108
-0.00111748
0.000142778
0.00206974
-0.0020919
0.000997314
0.00309722
-0.00198128
-0.00174997
0.00359706
-0.00831154
0.0032746
0.00130945
-0.010076
0.00133264
0.00223185
-0.00781973
0.00223185
0.0031071
-0.00455882
0.00253113
0.00383475
-0.00153817
0.00251545
0.00392197
7.96861e-05
0.00227778
0.0034608
0.000663155
0.00188141
0.00272213
0.000834439
0.00141971
0.0019339
0.000883723
0.00102777
0.00121712
0.000836579
0.0007727
0.000663269
0.000658222
0.000674837
0.000302554
0.000432064
0.000727722
6.95912e-05
0.000228888
0.000910619
-0.000135612
5.18656e-05
0.00121358
-0.000396596
-0.000160033
0.00161807
-0.000788053
-0.000383945
0.00208053
-0.00132714
-0.000484353
0.00254196
-0.00179476
-0.000223746
0.00292142
-0.00153888
-0.000355137
0.00336702
-0.000711077
-0.00389516
0.00353333
-0.0100487
0.00281184
0.00107078
-0.0109231
0.000150902
0.00156257
-0.00880332
0.00156257
0.00191797
-0.00579041
0.00228409
0.00236383
-0.00289077
0.00261847
0.00267435
-0.000972282
0.00266404
0.00270593
8.26606e-05
0.00246445
0.00246947
0.000714036
0.00214831
0.00208024
0.00109566
0.00181913
0.00161871
0.00127785
0.0015589
0.00120234
0.00115603
0.00141633
0.00088602
0.000832095
0.00138419
0.000663408
0.000449423
0.00147132
0.00048709
5.88975e-05
0.001694
0.000210975
-0.000259544
0.00201714
-0.000210535
-0.000590543
0.00244431
-0.00068299
-0.000873567
0.00288989
-0.000813744
-0.0011416
0.00327522
-0.000387209
-0.00204428
0.00360337
-6.25363e-06
-0.00554191
0.00334867
-0.0107879
0.00241261
0.000938954
-0.0112464
-0.000626539
0.00110336
-0.00913212
0.00110336
0.000980326
-0.0063318
0.00202168
0.000938436
-0.00367212
0.00247241
0.000963099
-0.00179523
0.00262796
0.00102206
-0.000622985
0.00250334
0.00108415
0.000163318
0.00224253
0.0010682
0.000791059
0.00195069
0.00107163
0.0011197
0.00173195
0.0011211
0.0010147
0.00160546
0.00118304
0.0006625
0.00154486
0.00124102
0.000216752
0.00155209
0.00122848
-0.000208249
0.00162753
0.00113833
-0.000608837
0.00180582
0.000911291
-0.00101473
0.00211342
0.000606752
-0.00145459
0.00251112
0.000410646
-0.00207987
0.00295594
0.00039084
-0.00337943
0.00325137
0.000226313
-0.00649458
0.00289305
-0.0109453
0.00194729
0.000777844
-0.0111086
-0.00119026
0.000664558
-0.00890554
0.000664558
0.000235422
-0.00638661
0.00161737
-1.3481e-05
-0.00414169
0.00199056
-0.000108623
-0.00249112
0.00206973
-5.78859e-05
-0.0013626
0.00190387
9.52224e-05
-0.000534069
0.00168032
0.000341714
0.000105152
0.00150477
0.000600171
0.000540414
0.00134868
0.000879268
0.00045771
0.00124723
0.0011824
6.89778e-05
0.00116708
0.00141774
-0.000336635
0.00108498
0.00160391
-0.000758761
0.0010693
0.00171145
-0.00116074
0.00115423
0.00168531
-0.00155864
0.00136996
0.00151591
-0.00205108
0.00173794
0.00122319
-0.00283723
0.00224519
0.00089194
-0.00419569
0.00250298
0.00040477
-0.0068607
0.00227293
-0.0105902
0.00140917
0.000443177
-0.0103886
-0.001738
6.87356e-05
-0.00815664
6.87356e-05
-0.00058716
-0.00599845
0.000921619
-0.000935783
-0.00434605
0.00114108
-0.000987165
-0.00310659
0.00105786
-0.000816056
-0.00220777
0.000834803
-0.000485018
-0.00149702
0.000627584
-6.11616e-05
-0.000906815
0.000536731
0.000341693
-0.000411094
0.000566147
0.000730802
-0.000438133
0.000495192
0.00114995
-0.000806744
0.000337779
0.00157588
-0.00118073
0.000228118
0.00194445
-0.00153221
0.000188743
0.00222421
-0.00186172
0.000228795
0.00236396
-0.0021969
0.000390168
0.00230195
-0.00263067
0.000720827
0.00199611
-0.00331437
0.001193
0.00144086
-0.00444866
0.00152665
0.000671586
-0.00659627
0.00145825
-0.00963302
0.000766696
-0.000261397
-0.00871342
-0.00243966
-0.000977911
-0.0067236
-0.000977911
-0.00174343
-0.00512045
-0.000355436
-0.00213534
-0.00400359
-0.00039739
-0.00207401
-0.00318075
-0.000716584
-0.00169147
-0.00258562
-0.000982484
-0.00106881
-0.00207561
-0.00120519
-0.000348616
-0.00159486
-0.00126997
0.000306784
-0.00109832
-0.001122
0.000892858
-0.00106778
-0.00106679
0.0015099
-0.00141031
-0.00118087
0.00208976
-0.00169879
-0.00124883
0.00259273
-0.00193983
-0.00125606
0.00300534
-0.00215634
-0.00121972
0.00328982
-0.00238312
-0.00108892
0.00334819
-0.00268253
-0.00080163
0.00301287
-0.00318153
-0.000297351
0.00224509
-0.00402042
0.000180182
0.00113407
-0.00557541
0.000322655
-0.00793707
-1.60355e-05
-0.00140253
-0.00560346
-0.00352751
-0.00268597
-0.00415671
-0.00268597
-0.00353473
-0.00323954
-0.00261774
-0.00383533
-0.00270035
-0.00292825
-0.00361644
-0.00232802
-0.00335795
-0.00299788
-0.00205464
-0.00373806
-0.00205593
-0.00178667
-0.00403753
-0.000891214
-0.00146004
-0.0041999
0.000225925
-0.000933361
-0.00401337
0.00121446
-0.000857692
-0.00377076
0.0022179
-0.00130065
-0.00373641
0.00307754
-0.0015398
-0.00358837
0.00375598
-0.00168229
-0.00339609
0.00427929
-0.00177235
-0.00324362
0.00461998
-0.00185787
-0.00304458
0.00470311
-0.00198392
-0.00273646
0.00437791
-0.00220763
-0.00228372
0.00351962
-0.00262495
-0.00177357
0.0019992
-0.00348486
-0.00135282
-0.00503421
-0.00124392
-0.00352979
-0.00527309
-0.00560814
-0.00560814
-0.00662841
-0.00641184
-0.00687878
-0.0072885
-0.00650177
-0.00815068
-0.00558325
-0.00896302
-0.00418371
-0.00961533
-0.00234999
-0.0100053
5.96466e-06
-0.00993474
0.0023357
-0.0095837
0.00409707
-0.00936964
0.00543323
-0.00886582
0.00640111
-0.008252
0.00703236
-0.00758853
0.00735388
-0.00694503
0.00734455
-0.00631085
0.00690518
-0.00562679
0.00582768
-0.00483056
0.00369886
-0.00388333
-0.00289263
0.00266476
-0.0023292
0.00524705
0.003796
-0.000698671
0.00458503
0.00310032
0.00139139
0.00310032
0.00175704
0.00183393
0.00165381
0.0011802
0.000601471
0.000879588
0.00105909
-3.90587e-05
0.000540476
0.00103299
-0.000177183
0.000400927
0.000953476
-0.000103727
0.000276103
0.000860674
-4.7922e-05
0.000133593
0.000783649
-5.1869e-05
1.83115e-05
0.00078272
-9.04957e-05
-0.000134956
0.0008896
-0.000134699
-0.000293731
0.00111206
-0.000178243
-0.000393084
0.00144642
-0.000244979
-0.000336071
0.00183148
-0.000337716
1.35425e-05
0.00198875
-0.000361796
0.000786239
0.00106109
0.000239022
0.0020424
-0.00182754
0.00167417
0.00423286
-0.00313622
2.68887e-06
0.00532364
-0.00438003
0.00529211
0.00165869
-0.0046172
0.00370173
0.0029035
-0.0025389
0.0038878
0.00353516
0.000128107
0.00353516
0.00345543
0.00135819
0.00288883
0.00263599
0.00121596
0.00202761
0.00181988
0.000675151
0.00124035
0.00124472
0.000275377
0.000718415
0.000888079
0.000119973
0.000430377
0.000632477
6.1409e-05
0.000299759
0.000436247
-8.20097e-06
0.000269028
0.000309578
-8.74687e-05
0.000269469
0.000251115
-0.000129486
0.000305409
0.000250048
-0.000143469
0.000417515
0.00028768
-0.000184114
0.000652158
0.000308812
-0.000256829
0.00103299
1.90664e-05
-0.000108822
0.00158787
-0.00109722
0.000771483
0.00265359
-0.00221724
0.00182077
0.0040706
-0.00217287
-0.000970703
0.00452605
-0.00736109
0.00408275
0.00138647
-0.00656991
0.00189888
0.00253113
-0.00455882
0.0031071
0.00357566
-0.00196092
0.00357566
0.00402613
6.16247e-05
0.00336158
0.0037885
0.000912893
0.00281852
0.00311843
0.00107338
0.00215326
0.00231301
0.000990896
0.00150961
0.00157652
0.000852445
0.00103177
0.000971852
0.000688883
0.000749886
0.000499425
0.000491276
0.000647785
0.000159409
0.000300064
0.000680206
-7.52633e-05
0.000181415
0.000834392
-0.00026463
0.000145744
0.00111374
-0.000476217
0.00012858
0.00151697
-0.000799864
0.000132513
0.00201485
-0.00132901
0.000369832
0.00259247
-0.0019418
0.00103829
0.00326741
-0.00197764
0.0011494
0.00407421
-0.0011792
-0.00255679
0.00432094
-0.00899015
0.00326167
0.00140789
-0.00791465
8.77495e-05
0.00228409
-0.00579041
0.00191797
0.00300395
-0.00340063
0.00300395
0.00348429
-0.00112152
0.00332129
0.00355761
0.000369381
0.00313426
0.00327344
0.00111441
0.00270761
0.00279116
0.00140426
0.00221724
0.0022182
0.00149487
0.00174967
0.00161527
0.00146478
0.00138593
0.00104351
0.00129153
0.00118783
0.000558874
0.00102302
0.00114587
0.000171865
0.000771204
0.00126855
-0.000163576
0.000610374
0.00156482
-0.000541394
0.000521676
0.00200187
-0.00100217
0.000503141
0.00253447
-0.00144282
0.000625972
0.0030744
-0.00161749
0.000853055
0.00363515
-0.00123666
0.000159156
0.00421277
-0.000629283
-0.00389672
0.00408119
-0.00972468
0.00251782
0.00135726
-0.00878802
-0.00111043
0.00202168
-0.0063318
0.000980326
0.00232205
-0.00400137
0.00232205
0.00245435
-0.00170651
0.00292511
0.00246912
-3.83037e-05
0.00302088
0.00232424
0.00100211
0.00276053
0.00208569
0.00151905
0.00236629
0.00179275
0.00178016
0.00195833
0.00149114
0.00187052
0.00162782
0.00120883
0.00175505
0.00142423
0.000949807
0.00148798
0.00133893
0.000702642
0.00119008
0.00138037
0.000439649
0.000940709
0.00156019
0.000110969
0.000768398
0.00188778
-0.000284952
0.000656931
0.00235555
-0.000644984
0.000586801
0.00291032
-0.000776991
0.000420308
0.00352069
-0.000561644
-0.000834742
0.0040299
-0.000377902
-0.00470792
0.00352047
-0.00988007
0.00172476
0.00113342
-0.00921759
-0.0018941
0.00161737
-0.00638661
0.000235422
0.00164471
-0.00405605
0.00164471
0.00152107
-0.00186643
0.00227413
0.00140659
-0.000268647
0.00241455
0.00131275
0.000788952
0.00221086
0.00123325
0.00139031
0.00188856
0.00118181
0.00175286
0.0015835
0.0011361
0.00192539
0.0013395
0.00109582
0.00186421
0.00117835
0.00106437
0.00160564
0.00108086
0.00100118
0.00128204
0.0010562
0.000894697
0.000988882
0.00112761
0.000736488
0.000761879
0.00131895
0.000499779
0.000583785
0.00167981
0.000207175
0.000388331
0.00222901
4.82258e-05
-9.25959e-05
0.00291703
-9.73662e-05
-0.00152733
0.00334114
-0.000179488
-0.00502382
0.00267093
-0.00954424
0.000893834
0.000653868
-0.0090179
-0.00259154
0.000921619
-0.00599845
-0.00058716
0.000761298
-0.0037354
0.000761298
0.0005363
-0.00182856
0.00132822
0.000428435
-0.000423675
0.00132075
0.00046973
0.000473123
0.00110933
0.000588047
0.00105076
0.000848807
0.000728141
0.00149896
0.000650525
0.000856535
0.00181945
0.000543685
0.000952213
0.00180685
0.000456858
0.00105856
0.00148325
0.000353808
0.00113897
0.00111901
0.000310722
0.0011795
0.000798425
0.00033867
0.00118292
0.000533712
0.000453535
0.0011338
0.000312783
0.000710277
0.000996521
7.26153e-05
0.00117382
0.000743204
-0.000479315
0.00183302
0.000428147
-0.00189414
0.00220851
0.000143985
-0.00486796
0.00158653
-0.00865756
2.39912e-05
-0.000242962
-0.00781472
-0.00339987
-0.000355436
-0.00512045
-0.00174343
-0.000691918
-0.00306244
-0.000691918
-0.00088114
-0.00164481
-0.000391921
-0.000791696
-0.000669174
-0.000560531
-0.000447204
-9.50964e-05
-0.000758758
-5.99879e-05
0.00047049
-0.00101214
0.000327197
0.000987004
-0.00114521
0.000602323
0.0015235
-0.00110118
0.000807102
0.00155197
-0.0010167
0.00108429
0.00105339
-0.00102821
0.00133577
0.000616342
-0.000997648
0.00155847
0.000259785
-0.000940126
0.00176447
-3.26686e-05
-0.000859351
0.00189436
-0.000205605
-0.000700417
0.00191424
-0.000408785
-0.000340115
0.00171063
-0.000798584
0.000225522
0.00129731
-0.00188335
0.0005827
0.000687207
-0.00411439
0.000179177
-0.00713631
-0.00085008
-0.00158559
-0.00520135
-0.00455528
-0.00261774
-0.00323954
-0.00353473
-0.00315227
-0.00199337
-0.00315227
-0.00326202
-0.00120488
-0.00325842
-0.00297401
-0.000635964
-0.00367917
-0.00246659
-0.000177417
-0.00416316
-0.00170075
0.000188592
-0.00452148
-0.000748157
0.000541318
-0.00470681
0.000213563
0.00109126
-0.00454287
0.00103515
0.00117839
-0.00421877
0.00180041
0.000626987
-0.00407526
0.00239661
0.000274168
-0.0038424
0.00283066
2.94477e-05
-0.00359981
0.00316072
-0.000228385
-0.00337796
0.00341076
-0.000427228
-0.00307299
0.0035302
-0.000614658
-0.00265002
0.00341645
-0.000895443
-0.00207311
0.00292434
-0.00146848
-0.00169633
0.00177323
-0.00264994
-0.00166615
-0.00462685
-0.00198015
-0.00419258
-0.00628186
-0.00641184
-0.00662841
-0.00740852
-0.00740852
-0.00759034
-0.00831156
-0.0071663
-0.00921068
-0.00620143
-0.0101053
-0.00472907
-0.0108991
-0.00275681
-0.0114363
-0.000157781
-0.0114425
0.00248922
-0.0110523
0.00441846
-0.0106719
0.00578748
-0.00996066
0.00671094
-0.009146
0.0072421
-0.00834807
0.00747412
-0.00760427
0.00743778
-0.00688916
0.00706329
-0.00614773
0.00608472
-0.00532045
0.00396867
-0.00441722
-0.0035508
0.00165919
0.00032971
0.00325821
0.00214433
0.00135871
0.00274128
0.00165381
0.00183393
0.00175704
0.00120197
0.000903798
0.00120197
0.0011376
-1.07264e-05
0.000954687
0.00119138
-0.000350766
0.000837458
0.00113853
-0.000266101
0.000719869
0.000983489
-0.000128933
0.000560063
0.000805809
-7.13774e-05
0.000382632
0.000627396
-8.93974e-05
0.000286105
0.000531627
-0.000147641
0.000108444
0.000585431
-0.00021419
-0.000133349
0.000822628
-0.000275946
-0.000354334
0.00126213
-0.000347149
-0.000428421
0.00187535
-0.000446398
-0.000153276
0.00218142
-0.000353586
0.000833743
0.00101971
0.000549741
0.00265432
-0.00181428
0.00192179
0.00514499
-0.00289568
0.000332001
0.006073
-0.00359984
0.00599623
0.00130828
-0.0011099
0.00383312
0.0023333
0.000276846
0.0039447
0.00288883
0.00135819
0.00345543
0.00265021
0.00138107
0.00265021
0.00202244
0.000814652
0.00183002
0.00146819
0.00023485
0.00120898
0.00111252
-2.38149e-05
0.00083179
0.000846546
-6.91625e-05
0.000636566
0.000579032
-5.54655e-05
0.000551351
0.000320629
-8.99487e-05
0.000527974
0.000141688
-0.000154152
0.000454916
7.90146e-05
-0.000201382
0.000355272
0.000136336
-0.000226495
0.000310742
0.000296623
-0.000278795
0.000423523
0.000451026
-0.000319745
0.000751944
0.000139363
5.75109e-05
0.00148845
-0.00108571
0.00135553
0.00307287
-0.00218678
0.00239621
0.0046972
-0.00213704
-0.000217702
0.00502597
-0.00609626
0.0044421
0.00142804
-0.00340102
0.00276198
0.00251545
-0.00153817
0.00383475
0.00336158
6.16247e-05
0.00402613
0.00358424
0.000935786
0.00358424
0.00323367
0.00111137
0.0028724
0.00255699
0.000963583
0.00210121
0.00186209
0.000714876
0.00146581
0.00126793
0.000513942
0.00104282
0.000759928
0.000368568
0.000833843
0.000314801
0.00022455
0.00077841
-1.95435e-05
8.18017e-05
0.000778594
-0.000220257
-5.47598e-06
0.000839199
-0.000331568
-1.33685e-06
0.000999892
-0.000437472
5.37484e-05
0.00129033
-0.000684904
0.000207443
0.00173511
-0.0012151
0.000768773
0.00241142
-0.00191274
0.00187574
0.00344483
-0.0021074
0.00216746
0.00449758
-0.00136583
-0.00132586
0.00468748
-0.0075274
0.00332696
0.00171174
-0.00543216
0.000407159
0.00261847
-0.00289077
0.00236383
0.00332129
-0.00112152
0.00348429
0.00365712
0.000264146
0.00365712
0.00355525
0.00105487
0.00329266
0.00315216
0.00133763
0.00273665
0.00259929
0.00133926
0.00214573
0.0019934
0.00124955
0.00161994
0.00136453
0.00112437
0.00125898
0.000746541
0.000942524
0.00108784
0.000211589
0.00070522
0.00105741
-0.000203025
0.000509119
0.00116857
-0.000524449
0.000455968
0.00142894
-0.000843757
0.000547404
0.00182753
-0.00121054
0.000783867
0.00232483
-0.00158061
0.00128853
0.00292472
-0.00181007
0.00201967
0.00372069
-0.00154664
0.00162957
0.00448722
-0.000873805
-0.00231076
0.00439322
-0.00822304
0.00233963
0.00164917
-0.00693892
-0.00125283
0.00247241
-0.00367212
0.000938436
0.00292511
-0.00170651
0.00245435
0.00311281
-0.000111234
0.00311281
0.00305011
0.00101459
0.00312387
0.00279826
0.0015644
0.00278562
0.00243756
0.00175581
0.00231044
0.00202581
0.00179125
0.00182837
0.00157734
0.00175374
0.0014469
0.00110159
0.00161316
0.00122934
0.000638672
0.00135137
0.00115569
0.000206495
0.00108333
0.00123834
-0.00018735
0.000940011
0.00146999
-0.00056042
0.000967746
0.00184051
-0.00091455
0.00115796
0.00233559
-0.00118535
0.00152434
0.00294531
-0.00124752
0.00191029
0.00369222
-0.000948116
0.00102424
0.0043358
-0.000578581
-0.0029655
0.00380565
-0.00843937
0.00136249
0.00127207
-0.0079047
-0.00220038
0.00199056
-0.00414169
-1.3481e-05
0.00227413
-0.00186643
0.00152107
0.00230378
-0.000170535
0.00230378
0.00222586
0.00102249
0.00248457
0.00208682
0.0016347
0.00227961
0.00190842
0.00191388
0.00190889
0.00170088
0.00206226
0.00152002
0.00144219
0.0021443
0.00120761
0.00113666
0.00206736
0.00102966
0.000837516
0.00177182
0.000959548
0.000536837
0.00143335
0.00100685
0.000237439
0.00120615
0.00116085
-5.21507e-05
0.00114523
0.00143105
-0.000321169
0.0012494
0.00185738
-0.00051942
0.00149155
0.00246005
-0.000549654
0.00163348
0.00322406
-0.000426669
0.000481984
0.00376039
-0.000306003
-0.00326908
0.00285381
-0.0082677
0.000416145
0.000588099
-0.00813002
-0.00295431
0.00114108
-0.00434605
-0.000935783
0.00132822
-0.00182856
0.0005363
0.00124612
-6.34918e-06
0.00124612
0.00123567
0.000946762
0.00140692
0.00127574
0.00146444
0.00123952
0.00131557
0.00177874
0.000944113
0.00130426
0.0020723
0.000651777
0.00118645
0.00235728
0.000448506
0.000991053
0.00235159
0.000368017
0.000837061
0.00194167
0.000337939
0.000683903
0.00150173
0.000395495
0.000524088
0.0011917
0.000512934
0.00037708
0.00104202
0.000703744
0.000261092
0.00104977
0.00102589
0.000172427
0.00120205
0.00155197
0.000155119
0.00120602
0.00227778
7.26281e-05
8.0821e-05
0.00269214
0.00011522
-0.00329489
0.00156973
-0.00768672
-0.000441775
-0.000446852
-0.00732175
-0.00376129
-0.00039739
-0.00400359
-0.00213534
-0.000391921
-0.00164481
-0.00088114
-0.000288528
-0.000213135
-0.000288528
-0.000205981
0.000668621
-0.00036494
1.09133e-05
0.00115047
-0.000661686
0.000283301
0.00152264
-0.00102844
0.000556066
0.00197034
-0.00131602
0.000680954
0.00251884
-0.00138765
0.000697303
0.00257003
-0.00125149
0.000824147
0.00193075
-0.00114413
0.000920758
0.00137347
-0.000966002
0.000968415
0.000995794
-0.000791886
0.000989179
0.000761596
-0.00059969
0.000995044
0.000647133
-0.000303653
0.0010033
0.00066358
0.00019009
0.00102526
0.000581601
0.000827981
0.00100055
-0.000410081
0.0010983
0.000697665
-0.0029729
0.000160056
-0.00655645
-0.00128269
-0.00192562
-0.00507092
-0.00488048
-0.00292825
-0.00270035
-0.00383533
-0.00325842
-0.00120488
-0.00326202
-0.0032594
-0.000211181
-0.0032594
-0.00298329
0.000350838
-0.0036375
-0.00252507
0.000705292
-0.0041762
-0.00183605
0.0010352
-0.00472307
-0.000907916
0.00145207
-0.00511669
9.36825e-05
0.00209406
-0.00511969
0.000951589
0.00222996
-0.00473662
0.00170854
0.00148452
-0.00438598
0.00219603
0.000982139
-0.00393856
0.00245776
0.000651676
-0.00351742
0.00256249
0.000417333
-0.00313843
0.00260937
0.000249692
-0.00272243
0.00268337
0.000135462
-0.0021959
0.00279772
-2.40408e-05
-0.00158182
0.00268225
-0.000720095
-0.00127085
0.00182939
-0.00212502
-0.00166117
-0.00442217
-0.00228504
-0.00483853
-0.00651424
-0.0072885
-0.00687878
-0.00831156
-0.00759034
-0.00841715
-0.00841715
-0.00792762
-0.00934936
-0.00695266
-0.010375
-0.00544576
-0.0113708
-0.0032995
-0.0121305
-0.000317173
-0.0123308
0.00282245
-0.0119619
0.00496758
-0.0113325
0.00634288
-0.0103538
0.00715561
-0.00930704
0.007564
-0.00833911
0.00768517
-0.00747574
0.00760593
-0.00667444
0.0073156
-0.00588142
0.00643833
-0.00516327
0.00429295
-0.00439685
-0.00368001
0.000677074
0.000918126
0.00166317
0.000904143
0.00099144
0.0015229
0.000879588
0.000601471
0.0011802
0.000954687
-1.07264e-05
0.0011376
0.00117475
-0.000440141
0.00117475
0.00130649
-0.000440012
0.00114573
0.00123962
-0.00026345
0.00105019
0.00100593
-0.000129959
0.000923692
0.000715561
-0.000108136
0.000781124
0.000353371
-0.00015623
0.000804512
0.00011573
-0.000231417
0.000577499
9.29265e-05
-0.000304895
0.000194353
0.000280051
-0.000299113
-0.000242346
0.000715818
-0.000309085
-0.000555105
0.00140273
-0.000327464
-0.00051273
0.0017497
5.35575e-05
0.000433162
0.000403289
0.00107682
0.00292382
-0.00194712
0.00210527
0.00539004
-0.00260279
0.000589375
0.00613925
-0.00275707
0.00615048
0.00107535
0.000406919
0.00326902
0.00182264
0.00102415
0.00316474
0.00202761
0.00121596
0.00263599
0.00183002
0.000814652
0.00202244
0.00150835
0.000203193
0.00150835
0.00127927
-0.000192706
0.00119074
0.00108873
-0.000259758
0.00101863
0.000816697
-0.000161882
0.000940511
0.000436121
-0.000109671
0.000933455
1.48923e-05
-0.000132184
0.00092515
-0.000268603
-0.000192627
0.000699619
-0.000363146
-0.000239514
0.000384434
-0.000260779
-0.000260436
0.000169702
-1.21404e-05
-0.00029947
0.000165277
0.000150769
-0.000203124
0.000464708
-0.000148094
0.000469765
0.00137111
-0.0012524
0.0020129
0.00324106
-0.00211451
0.00279525
0.00486927
-0.00198459
0.000394265
0.00509112
-0.00475682
0.00445723
0.0014205
-0.00155181
0.00330026
0.00227778
7.96861e-05
0.00392197
0.00281852
0.000912893
0.0037885
0.0028724
0.00111137
0.00323367
0.00250686
0.000934278
0.00250686
0.00197931
0.000590913
0.00184514
0.00148131
0.00031759
0.00138646
0.00101168
0.000207094
0.00114346
0.000479697
0.000181085
0.00107506
-5.40414e-05
0.000131752
0.00104821
-0.000415856
1.97764e-05
0.000928003
-0.000567199
-6.3167e-05
0.000814194
-0.000590662
-5.70131e-05
0.000819932
-0.000614535
2.63103e-05
0.000988428
-0.000795009
0.000315836
0.00139663
-0.00128186
0.00117267
0.00219538
-0.00191129
0.00257476
0.00351238
-0.00211047
0.00287392
0.00461805
-0.00143657
-0.000265922
0.00467373
-0.00603625
0.00316979
0.00192257
-0.003807
0.000739777
0.00266404
-0.000972282
0.00267435
0.00313426
0.000369381
0.00355761
0.00329266
0.00105487
0.00355525
0.00311997
0.00127968
0.00311997
0.00270984
0.00120293
0.00253477
0.00218826
0.00102852
0.00195637
0.00160044
0.00090446
0.00151039
0.000922363
0.000856038
0.0012621
0.00021961
0.000773208
0.00114913
-0.000320739
0.000548254
0.00106928
-0.000645162
0.000345876
0.00108395
-0.000855361
0.000329003
0.00125313
-0.00105552
0.00048872
0.00156529
-0.0013075
0.000879874
0.00201278
-0.00161499
0.00170665
0.00269823
-0.0018406
0.00282074
0.00370031
-0.00163828
0.00263304
0.00452574
-0.000977273
-0.000916567
0.00438283
-0.00677625
0.00210234
0.00182967
-0.00569934
-0.00119016
0.00262796
-0.00179523