/*--------------------------------*- C++ -*----------------------------------*\
  =========                 |
  \\      /  F ield         | OpenFOAM: The Open Source CFD Toolbox
   \\    /   O peration     | Website:  https://openfoam.org
    \\  /    A nd           | Version:  8
     \\/     M anipulation  |
\*---------------------------------------------------------------------------*/
FoamFile
{
    version     2.0;
    format      ascii;
    class       volVectorField;
    location    "800";
    object      U;
}
// * * * * * * * * * * * * * * * * * * * * * * * * * * * * * * * * * * * * * //

dimensions      [0 1 -1 0 0 0 0];

internalField   nonuniform List<vector> 
4000
(
(0.0092277 -0.0276514 0.0092277)
(0.0184227 -0.0191673 0.00883836)
(0.0234736 -0.00910818 0.00764032)
(0.0199338 -0.000240329 0.00557963)
(0.00824197 0.00140686 0.00238954)
(0.00465153 -0.000424792 0.00053536)
(0.00408429 -0.000225084 4.32471e-05)
(0.00391794 5.40137e-05 -0.000125848)
(0.00380111 0.000137004 -0.000264731)
(0.00375046 0.000184716 -0.000423098)
(0.00394693 0.000223718 -0.000599376)
(0.00433505 0.000248343 -0.000692667)
(0.00493239 0.000253136 -0.000640895)
(0.00561761 0.000208248 -0.000399313)
(0.00617993 6.36843e-05 5.30394e-05)
(0.00626073 -0.000153829 0.00070847)
(0.0066322 -0.000105376 0.00141652)
(0.00211526 0.00195915 0.00398965)
(-0.0149347 -0.00280742 0.00679098)
(-0.00642384 -0.0185244 0.0064176)
(0.0041636 -0.0390027 0.0041636)
(0.00973162 -0.0276801 0.00453484)
(0.0135409 -0.0127434 0.00418519)
(0.0165939 0.00149891 0.00367335)
(0.0148808 0.00523565 0.00306942)
(0.0114129 0.00326147 0.0021087)
(0.00722911 0.000817983 0.001025)
(0.00474271 0.000237752 0.000415835)
(0.00325008 0.00043621 0.000143921)
(0.00219388 0.000653928 0.000123156)
(0.00153848 0.000750382 0.000323426)
(0.00118668 0.000672044 0.000769313)
(0.000937319 0.000291717 0.00140309)
(0.000663461 -0.000419996 0.00212389)
(0.00021929 -0.00136402 0.00291334)
(-0.000805995 -0.0021588 0.00366938)
(-0.00228201 -0.00116517 0.00386882)
(-0.00473934 0.00393106 0.00505124)
(-0.00955611 -0.00324128 0.0066002)
(-0.000657628 -0.0303427 0.00532031)
(0.00196813 -0.0498073 0.00196813)
(0.00471403 -0.0378498 0.00297129)
(0.00547069 -0.0232147 0.00331211)
(0.00946147 -0.00966417 0.00389503)
(0.0127823 -0.00164739 0.00417542)
(0.0137872 0.00177085 0.00392572)
(0.0127359 0.00315499 0.00337184)
(0.0102512 0.00325525 0.00283605)
(0.00722056 0.00270998 0.00245262)
(0.00436398 0.0019117 0.00237831)
(0.00258581 0.000896784 0.00275126)
(0.00193358 -0.000556688 0.00321815)
(0.00172267 -0.00226552 0.00367021)
(0.00142777 -0.00402119 0.00416216)
(0.000670393 -0.00564162 0.00477914)
(-0.00113092 -0.00670786 0.0055751)
(-0.00376099 -0.00593491 0.0061434)
(-0.00397988 -0.00524116 0.00660911)
(-0.00120375 -0.0181063 0.006166)
(0.00234802 -0.0403369 0.00477195)
(0.000865965 -0.0544839 0.000865965)
(0.00171089 -0.0426362 0.00229946)
(-0.000489714 -0.0294507 0.00293382)
(0.000972103 -0.0180557 0.00401638)
(0.00239048 -0.0111065 0.00497202)
(0.00358991 -0.00710267 0.00529339)
(0.00437982 -0.00427238 0.00519675)
(0.00511242 -0.00139898 0.00501821)
(0.00512591 0.000600996 0.00493952)
(0.00437523 -0.000253406 0.00479586)
(0.00436873 -0.00288721 0.00441572)
(0.00500946 -0.00577678 0.0040191)
(0.00574305 -0.00834162 0.00378791)
(0.00620475 -0.0104906 0.00378929)
(0.00608184 -0.0122697 0.00403036)
(0.00517382 -0.0137674 0.00452693)
(0.00343299 -0.0152311 0.00515872)
(0.00377871 -0.0181268 0.00556374)
(0.00382893 -0.0281208 0.00489833)
(0.00381423 -0.0446697 0.00430786)
(9.20038e-05 -0.0559078 9.20038e-05)
(-0.00036404 -0.0448146 0.00172329)
(-0.00435712 -0.0338867 0.00210316)
(-0.00489382 -0.0254642 0.00262219)
(-0.00508891 -0.01984 0.00293522)
(-0.0044842 -0.0162784 0.00288379)
(-0.00334843 -0.0135969 0.00261264)
(-0.00166085 -0.0109521 0.00248975)
(0.00056748 -0.00881848 0.00274461)
(0.00264096 -0.00986666 0.0025434)
(0.00488654 -0.0120062 0.00207565)
(0.00700312 -0.0141821 0.00165016)
(0.00875292 -0.0161475 0.00141105)
(0.0100533 -0.0178446 0.00138347)
(0.0107583 -0.0193212 0.00160798)
(0.0107175 -0.0206955 0.00206122)
(0.00981488 -0.0224255 0.00267384)
(0.00909992 -0.0257868 0.00311711)
(0.00655237 -0.0337919 0.0033318)
(0.00475063 -0.046951 0.00370383)
(-0.000741811 -0.0548789 -0.000741811)
(-0.00204316 -0.0454963 0.000898225)
(-0.00707492 -0.0368428 0.000703901)
(-0.0085171 -0.0306726 0.000455477)
(-0.00904166 -0.0265945 1.68311e-05)
(-0.00815988 -0.0239007 -0.000488381)
(-0.00629418 -0.0217139 -0.000977167)
(-0.00370549 -0.0195 -0.00129727)
(-0.000467752 -0.0175257 -0.0011729)
(0.00267301 -0.0181328 -0.00125613)
(0.00552192 -0.019693 -0.00151711)
(0.00833706 -0.021189 -0.00167645)
(0.0107838 -0.0225122 -0.00167379)
(0.012752 -0.0236659 -0.00150728)
(0.0140919 -0.0247381 -0.00114132)
(0.0146007 -0.0258523 -0.000562725)
(0.0139856 -0.0274266 0.000179876)
(0.0125825 -0.0304521 0.000946753)
(0.00852374 -0.0367369 0.00181081)
(0.0056267 -0.0471034 0.00290094)
(-0.00182273 -0.0514686 -0.00182273)
(-0.00378278 -0.0439089 -0.000398825)
(-0.00963031 -0.0375252 -0.00118966)
(-0.0115607 -0.0333162 -0.00202872)
(-0.0120193 -0.0305292 -0.00294755)
(-0.0106817 -0.0286145 -0.00378597)
(-0.00803455 -0.0269671 -0.00450152)
(-0.0045093 -0.0251552 -0.00492423)
(-0.000649547 -0.0234606 -0.00491401)
(0.00303251 -0.0235802 -0.00478268)
(0.00623708 -0.0245104 -0.00477119)
(0.00963509 -0.0253439 -0.00469724)
(0.0126455 -0.0260502 -0.00448891)
(0.0151304 -0.0266876 -0.00416398)
(0.0169422 -0.0273659 -0.00369383)
(0.0178349 -0.0281878 -0.0030169)
(0.0173561 -0.0294425 -0.00213914)
(0.0155014 -0.0318665 -0.00108906)
(0.010395 -0.0366677 0.000210062)
(0.0066543 -0.0447297 0.00186744)
(-0.00353979 -0.0443117 -0.00353979)
(-0.00627991 -0.0386522 -0.00255531)
(-0.0127061 -0.034482 -0.00371619)
(-0.0148918 -0.0319487 -0.00497264)
(-0.0150822 -0.0301999 -0.00619609)
(-0.0132254 -0.0289196 -0.00725311)
(-0.00983735 -0.0277397 -0.00810349)
(-0.00540753 -0.0264265 -0.00861085)
(-0.000812368 -0.0248741 -0.00845879)
(0.00369586 -0.0247143 -0.00814149)
(0.0073531 -0.0254201 -0.00808439)
(0.0113821 -0.0258414 -0.00783751)
(0.014915 -0.0260426 -0.00744069)
(0.0177942 -0.0261436 -0.00695852)
(0.0198896 -0.0262862 -0.0063684)
(0.0209576 -0.0266601 -0.0055886)
(0.0205669 -0.0275592 -0.0045575)
(0.0184432 -0.0293245 -0.00330023)
(0.012598 -0.0327392 -0.00170871)
(0.00805971 -0.0387019 0.000423539)
(-0.00639397 -0.0325821 -0.00639397)
(-0.0105018 -0.0285225 -0.00626765)
(-0.0171889 -0.0262265 -0.00780071)
(-0.0194773 -0.0252683 -0.00944919)
(-0.0193799 -0.0247875 -0.0110093)
(-0.0170139 -0.0245049 -0.0123438)
(-0.0128313 -0.0241314 -0.0133997)
(-0.00729029 -0.0234624 -0.0140366)
(-0.00161682 -0.0222966 -0.0137147)
(0.00476642 -0.0220926 -0.013073)
(0.00930054 -0.0225899 -0.0129622)
(0.0142388 -0.0226385 -0.0124612)
(0.0183839 -0.0223846 -0.0117663)
(0.0216102 -0.0219821 -0.0110059)
(0.0238749 -0.0215931 -0.0101754)
(0.0249936 -0.021363 -0.00919931)
(0.0245472 -0.0214568 -0.00798142)
(0.0220948 -0.022123 -0.00648666)
(0.015731 -0.0241306 -0.00455325)
(0.0102005 -0.028329 -0.00190489)
(-0.01083 -0.0197068 -0.01083)
(-0.0174675 -0.0156243 -0.0124951)
(-0.0241279 -0.0135579 -0.0151175)
(-0.0262185 -0.0125904 -0.017562)
(-0.0256863 -0.0119331 -0.019844)
(-0.0227459 -0.0113512 -0.0219023)
(-0.0176996 -0.0106608 -0.0236278)
(-0.0109123 -0.00969623 -0.0248452)
(-0.00393283 -0.00829252 -0.0248169)
(0.00643135 -0.00813929 -0.0238102)
(0.0125067 -0.00917956 -0.0232777)
(0.0186769 -0.00987641 -0.0220177)
(0.023579 -0.0102673 -0.0205376)
(0.027165 -0.0104795 -0.0189846)
(0.029507 -0.0106181 -0.0174336)
(0.0305405 -0.0107836 -0.0158581)
(0.029982 -0.0110806 -0.0141358)
(0.0273853 -0.0116791 -0.0120963)
(0.0208502 -0.0132348 -0.00939147)
(0.013568 -0.0168559 -0.00559412)
(0.00883836 -0.0191673 0.0184227)
(0.0169129 -0.0118456 0.0169129)
(0.0214206 -0.00333758 0.0136455)
(0.016419 0.00321027 0.00843191)
(0.00686235 0.00144989 0.00355657)
(0.00470079 -0.000916168 0.00120864)
(0.00421786 -0.000552903 0.000502048)
(0.00394098 -0.000163696 0.000136156)
(0.00368768 -6.75644e-05 -0.000212419)
(0.0035139 -0.000116885 -0.000542585)
(0.00359753 -0.00021886 -0.000897594)
(0.00393399 -0.000324619 -0.00114057)
(0.00456384 -0.000424161 -0.00112951)
(0.00540656 -0.000546743 -0.000701649)
(0.00629171 -0.000715963 0.000325763)
(0.00671204 -0.000849816 0.00193361)
(0.00762736 -0.000306184 0.00402003)
(-0.000464901 0.00292572 0.00919313)
(-0.0152627 -0.0022135 0.0125843)
(-0.00744606 -0.0165984 0.0127443)
(0.00453484 -0.0276801 0.00973162)
(0.0103813 -0.0180357 0.0103813)
(0.0150358 -0.00397773 0.009287)
(0.0166054 0.0058555 0.00755807)
(0.0147107 0.00611749 0.00596555)
(0.0109513 0.00288287 0.00394448)
(0.00683708 0.000287524 0.00201569)
(0.004594 -0.000198616 0.000898535)
(0.00322423 2.45089e-05 0.000365411)
(0.00223913 8.3049e-05 0.000239227)
(0.0016003 -5.4451e-05 0.000415565)
(0.0012167 -0.000173737 0.000933696)
(0.000957348 -0.000279141 0.00179332)
(0.000725839 -0.000534469 0.00294782)
(0.000459853 -0.00103923 0.00431918)
(-0.000260818 -0.00146115 0.00565239)
(-0.00184072 0.000444422 0.00675544)
(-0.00664915 0.00636549 0.00981205)
(-0.0112703 -0.000907 0.0116461)
(-0.00248702 -0.0278342 0.0107302)
(0.00297129 -0.0378498 0.00471403)
(0.00736827 -0.0286675 0.00736827)
(0.0102148 -0.0153585 0.0080802)
(0.0142611 -0.00303685 0.00800899)
(0.0162321 0.00272709 0.00742592)
(0.0153561 0.00397098 0.00641058)
(0.0126816 0.00371638 0.00509973)
(0.00926459 0.00284233 0.00388423)
(0.00611827 0.00190515 0.00303503)
(0.00354931 0.00109636 0.00274435)
(0.00174167 0.000559532 0.00302759)
(0.000646687 0.000261193 0.00378327)
(-0.000129665 -3.22271e-05 0.00491572)
(-0.000958353 -0.000558786 0.00631789)
(-0.0021691 -0.00127983 0.00784272)
(-0.00421349 -0.00126351 0.00923966)
(-0.00663911 0.00104589 0.0101502)
(-0.00747847 0.00247891 0.0112619)
(-0.00486316 -0.0119652 0.0117942)
(6.22174e-06 -0.037848 0.00977855)
(0.00229946 -0.0426362 0.00171089)
(0.00607621 -0.033943 0.00607621)
(0.00641366 -0.0214602 0.00812151)
(0.00844707 -0.0096782 0.00918196)
(0.0103348 -0.00222155 0.00957934)
(0.0112447 0.00164707 0.00913322)
(0.0106024 0.00343686 0.00828787)
(0.00927374 0.00461011 0.00734543)
(0.0074949 0.00512303 0.00661288)
(0.00553922 0.00451886 0.00631465)
(0.00400593 0.0031502 0.006342)
(0.00298659 0.00168452 0.00667424)
(0.00228718 0.000463639 0.007317)
(0.00153537 -0.000708379 0.00819086)
(0.0001303 -0.00190266 0.00934881)
(-0.00187846 -0.00269485 0.0105902)
(-0.00359721 -0.0030057 0.0116447)
(-0.00249971 -0.00539486 0.0123575)
(-0.000875064 -0.0196103 0.0113771)
(0.00100353 -0.0423254 0.00908663)
(0.00172329 -0.0448146 -0.00036404)
(0.00534724 -0.0364695 0.00534724)
(0.00364229 -0.0248779 0.0080213)
(0.00376394 -0.0137145 0.00940119)
(0.00369936 -0.00602638 0.0101155)
(0.00397861 -0.00126007 0.010104)
(0.00440809 0.00178442 0.00950183)
(0.00442792 0.00375372 0.00867656)
(0.00434967 0.00484396 0.00807069)
(0.00431554 0.00441363 0.00780846)
(0.00454707 0.00309988 0.00771331)
(0.0048469 0.00154211 0.00771948)
(0.00498903 -0.00012604 0.007776)
(0.00481008 -0.00177673 0.00801146)
(0.00419247 -0.00335369 0.00857604)
(0.0030914 -0.00492843 0.00945962)
(0.00162631 -0.00693512 0.0105085)
(0.00202462 -0.01178 0.010965)
(0.000761748 -0.0248414 0.0101534)
(0.00155269 -0.0440382 0.00827983)
(0.000898225 -0.0454963 -0.00204316)
(0.0045238 -0.036851 0.0045238)
(0.00115828 -0.026153 0.00723023)
(0.000361131 -0.0162382 0.00820253)
(-0.000442728 -0.00904894 0.00844698)
(-0.000447688 -0.0043366 0.00824567)
(-1.42261e-06 -0.00089685 0.00801394)
(0.000946014 0.00179679 0.00781551)
(0.00194766 0.00319126 0.0074368)
(0.00294147 0.00284881 0.00715751)
(0.00410189 0.0015637 0.00683161)
(0.00522423 -0.000147333 0.00627731)
(0.00609521 -0.00191152 0.00588806)
(0.00669775 -0.00361628 0.00581279)
(0.00688138 -0.00534055 0.00614539)
(0.00651993 -0.0073323 0.00689381)
(0.00548085 -0.0103467 0.00796746)
(0.00477359 -0.0158966 0.00865133)
(0.00187559 -0.0274728 0.00852998)
(0.00212755 -0.0437968 0.00711511)
(-0.000398825 -0.0439089 -0.00378278)
(0.00287061 -0.0350424 0.00287061)
(-0.00200983 -0.0253806 0.00515991)
(-0.00323222 -0.0175105 0.00534701)
(-0.00409157 -0.0116061 0.0047997)
(-0.00370695 -0.00723929 0.00415739)
(-0.00263163 -0.00383723 0.003771)
(-0.00110682 -0.00121003 0.00383169)
(0.000659702 0.000691969 0.00441833)
(0.00212313 0.000415062 0.00408452)
(0.00372353 -0.00116972 0.00308239)
(0.00548237 -0.00290827 0.00229061)
(0.00710012 -0.00457492 0.0018506)
(0.00841986 -0.00610428 0.00178409)
(0.00926242 -0.00758663 0.00218942)
(0.00947504 -0.00955109 0.00307068)
(0.00881981 -0.0127253 0.00434051)
(0.00750344 -0.0179518 0.00562304)
(0.00344732 -0.0276756 0.0062294)
(0.00307335 -0.0411972 0.00540503)
(-0.00255531 -0.0386522 -0.00627991)
(-0.000637873 -0.030063 -0.000637873)
(-0.00638135 -0.0227958 0.000677264)
(-0.00812712 -0.0174328 -9.88463e-05)
(-0.00872363 -0.0133187 -0.00154197)
(-0.00769488 -0.0103196 -0.00277572)
(-0.00559766 -0.00784585 -0.00354961)
(-0.00282534 -0.00560342 -0.0036816)
(5.79618e-05 -0.00350393 -0.00297216)
(0.00244415 -0.00338312 -0.00282182)
(0.00478809 -0.00473993 -0.00337488)
(0.00726438 -0.00605718 -0.0037491)
(0.00945277 -0.00724976 -0.00386113)
(0.0112902 -0.00838831 -0.00376997)
(0.0127003 -0.00960038 -0.00333431)
(0.0134575 -0.0111565 -0.00238084)
(0.0130736 -0.0136202 -0.000768634)
(0.0111837 -0.0175219 0.00122117)
(0.00611259 -0.0248301 0.00265834)
(0.00471334 -0.035403 0.00270089)
(-0.00626765 -0.0285225 -0.0105018)
(-0.00736067 -0.0221144 -0.00736067)
(-0.0133499 -0.0176245 -0.00758062)
(-0.0151968 -0.0148927 -0.00905147)
(-0.0152574 -0.0130198 -0.0107749)
(-0.0134846 -0.0117153 -0.012215)
(-0.0102961 -0.0104999 -0.0132384)
(-0.00600363 -0.00916306 -0.0136034)
(-0.00140516 -0.00726728 -0.0125493)
(0.00318124 -0.00716773 -0.0117165)
(0.00692185 -0.00856367 -0.0120499)
(0.0107521 -0.00934646 -0.0118296)
(0.01384 -0.00980251 -0.0113298)
(0.0162381 -0.0100553 -0.0107994)
(0.0179588 -0.0103179 -0.01012)
(0.0188637 -0.0108022 -0.00907419)
(0.0184973 -0.0118369 -0.00747928)
(0.016534 -0.0139922 -0.00545483)
(0.0108789 -0.0183618 -0.00335322)
(0.00762801 -0.0256294 -0.00197435)
(-0.0124951 -0.0156243 -0.0174675)
(-0.0186841 -0.00950666 -0.0186841)
(-0.0255486 -0.00613366 -0.0217578)
(-0.0276424 -0.00422382 -0.0250067)
(-0.0272613 -0.00287765 -0.0281453)
(-0.0246117 -0.00176359 -0.0310238)
(-0.019868 -0.000623606 -0.0333504)
(-0.0132079 0.000743136 -0.0348171)
(-0.00621996 0.00263546 -0.0346418)
(0.00625575 0.00303754 -0.0333883)
(0.0130602 0.00121155 -0.0326367)
(0.0193812 -8.1322e-05 -0.0308572)
(0.0240332 -0.00105034 -0.028726)
(0.0271846 -0.00183803 -0.0264596)
(0.0290627 -0.00253717 -0.0242332)
(0.0297089 -0.00326463 -0.0220053)
(0.0289154 -0.00416339 -0.0195589)
(0.0262977 -0.00552391 -0.0166316)
(0.0196776 -0.00827621 -0.0129687)
(0.0127571 -0.0139574 -0.00873731)
(0.00764032 -0.00910818 0.0234736)
(0.0136455 -0.00333758 0.0214206)
(0.0158854 0.00306424 0.0158854)
(0.00976472 0.00510914 0.00853057)
(0.00454756 -0.000496553 0.0034739)
(0.00432491 -0.00156038 0.00175705)
(0.00424893 -0.000825919 0.00113745)
(0.00397568 -0.000373507 0.000671646)
(0.00358731 -0.000259832 0.000167201)
(0.00322341 -0.00032863 -0.000290146)
(0.00307634 -0.000467355 -0.000831414)
(0.00326715 -0.000614133 -0.001325)
(0.00392558 -0.000749032 -0.00154497)
(0.00504812 -0.000908248 -0.00116601)
(0.00655107 -0.00113604 0.000203796)
(0.00774446 -0.00119735 0.00282287)
(0.00907071 -9.47495e-05 0.00681187)
(-0.00125144 0.00377991 0.0145325)
(-0.0145266 -0.00152739 0.0188156)
(-0.00791109 -0.0143648 0.0188004)
(0.00418519 -0.0127434 0.0135409)
(0.009287 -0.00397773 0.0150358)
(0.0139392 0.0059641 0.0139392)
(0.0141393 0.008431 0.0109238)
(0.012905 0.00544163 0.00816575)
(0.00887824 0.00139043 0.00504042)
(0.0056854 -0.000612767 0.00269487)
(0.00410533 -0.000568 0.00144202)
(0.00299715 -0.000225432 0.00086155)
(0.00207468 -0.000218776 0.00071205)
(0.00139999 -0.000420465 0.000781955)
(0.00104124 -0.000615617 0.00110361)
(0.000958419 -0.000760863 0.00178699)
(0.00106237 -0.000991166 0.00292892)
(0.00126778 -0.00141043 0.00452654)
(0.000985815 -0.00143815 0.00642542)
(-0.000957152 0.00213554 0.00945776)
(-0.00726819 0.00835602 0.0145021)
(-0.0117347 0.000760583 0.0163992)
(-0.00369921 -0.0244231 0.0149233)
(0.00331211 -0.0232147 0.00547069)
(0.0080802 -0.0153585 0.0102148)
(0.0122987 -0.00434467 0.0122987)
(0.0156375 0.00324329 0.0119926)
(0.0162942 0.00491572 0.0105026)
(0.0143489 0.00434443 0.00839404)
(0.0109833 0.00304204 0.00612516)
(0.00757446 0.0017092 0.00424972)
(0.00491567 0.000830766 0.00305349)
(0.00280421 0.000242444 0.00258908)
(0.00118351 -0.000141126 0.00275487)
(7.73692e-05 -0.000271717 0.00347713)
(-0.000695753 -0.000233544 0.00473084)
(-0.00140714 -0.000294659 0.00645488)
(-0.00236487 -0.000398979 0.00846958)
(-0.0042573 0.000762007 0.0105471)
(-0.00652676 0.00454218 0.0125557)
(-0.00875883 0.00654732 0.0150898)
(-0.00710204 -0.00762428 0.0159414)
(-0.00150865 -0.0337955 0.01235)
(0.00293382 -0.0294507 -0.000489714)
(0.00812151 -0.0214602 0.00641366)
(0.0103675 -0.0118476 0.0103675)
(0.0131014 -0.00299135 0.0119361)
(0.0145825 0.00229511 0.0117986)
(0.0140941 0.00448176 0.0106269)
(0.0123473 0.00511084 0.00903086)
(0.010117 0.00516705 0.00741099)
(0.00768912 0.00476857 0.00609041)
(0.00523297 0.003839 0.00532654)
(0.00306337 0.00267375 0.00514351)
(0.00135683 0.0017935 0.00559132)
(-3.89731e-06 0.00142167 0.00674694)
(-0.00132388 0.00130949 0.00843598)
(-0.0030858 0.00143071 0.0104806)
(-0.00507645 0.00227961 0.012468)
(-0.00645442 0.00397105 0.0142239)
(-0.00628884 0.00279912 0.015967)
(-0.00378263 -0.0133314 0.0151163)
(-0.000621963 -0.0380441 0.00997702)
(0.00210316 -0.0338867 -0.00435712)
(0.0080213 -0.0248779 0.00364229)
(0.00855433 -0.0155212 0.00855433)
(0.00951997 -0.00631824 0.0109303)
(0.0100573 0.000356423 0.0116953)
(0.00981437 0.00409228 0.0109742)
(0.0089927 0.00589531 0.00963098)
(0.00785975 0.00670147 0.008161)
(0.00659854 0.0068799 0.00697704)
(0.00535355 0.00634504 0.00624218)
(0.00426481 0.00529669 0.00589385)
(0.00328684 0.00415468 0.00597541)
(0.00230023 0.00323526 0.0065301)
(0.00118985 0.00263816 0.00766713)
(-0.000339187 0.00232794 0.00945128)
(-0.00198158 0.00234642 0.0114997)
(-0.00339038 0.00234146 0.0136075)
(-0.0024375 -0.00176851 0.0150679)
(-0.00241814 -0.0178165 0.0130101)
(4.37843e-06 -0.039766 0.00731684)
(0.000703901 -0.0368428 -0.00707492)
(0.00723023 -0.026153 0.00115828)
(0.00633051 -0.016768 0.00633051)
(0.0063437 -0.0076732 0.00867623)
(0.00588467 -0.000743174 0.00939315)
(0.0055393 0.00348026 0.00861922)
(0.00516282 0.00581252 0.007288)
(0.00488762 0.00714599 0.00609412)
(0.00466909 0.00771802 0.00517265)
(0.00444873 0.00737189 0.00457581)
(0.00430898 0.00632111 0.00417652)
(0.00414918 0.00507712 0.00396845)
(0.00382232 0.0039985 0.00414753)
(0.0033094 0.00320343 0.00483226)
(0.00250672 0.00260037 0.00617553)
(0.0014818 0.00200006 0.00827138)
(-2.4505e-05 0.000636006 0.0109142)
(0.000545255 -0.00525972 0.0119663)
(-0.00160354 -0.0201759 0.00992576)
(0.000762731 -0.0395393 0.00436614)
(-0.00118966 -0.0375252 -0.00963031)
(0.00515991 -0.0253806 -0.00200983)
(0.00292981 -0.0161238 0.00292981)
(0.00265603 -0.0077931 0.00480236)
(0.00186689 -0.00168493 0.00491023)
(0.00182475 0.00236903 0.0039112)
(0.0021463 0.00494495 0.00263771)
(0.00268649 0.00661537 0.00183202)
(0.00322108 0.00754255 0.0015176)
(0.00362556 0.0073898 0.00118819)
(0.00402246 0.00628233 0.000705649)
(0.00441868 0.00490161 0.000414012)
(0.00466567 0.00360999 0.000432284)
(0.00475226 0.00257808 0.000840042)
(0.00465576 0.00176716 0.00185589)
(0.00428265 0.000782598 0.00374832)
(0.00333584 -0.00149607 0.00614746)
(0.00297231 -0.00736354 0.00728186)
(-0.000159286 -0.0203591 0.00587639)
(0.00200917 -0.0371219 0.00111031)
(-0.00371619 -0.034482 -0.0127061)
(0.000677264 -0.0227958 -0.00638135)
(-0.00288536 -0.0135746 -0.00288536)
(-0.00312239 -0.00643785 -0.0023343)
(-0.00354573 -0.00129087 -0.003068)
(-0.00244009 0.00202913 -0.00359966)
(-0.00104354 0.00413545 -0.00440723)
(0.000599152 0.00590257 -0.00474304)
(0.00196672 0.00736275 -0.00441704)
(0.00284607 0.00746411 -0.00419082)
(0.00376166 0.0061437 -0.00446679)
(0.00487661 0.00472052 -0.00461386)
(0.00582022 0.00347894 -0.00459703)
(0.00666651 0.00232103 -0.00448688)
(0.00735663 0.0011925 -0.00406816)
(0.00771432 3.31437e-05 -0.00297093)
(0.00720444 -0.00196614 -0.000999019)
(0.00650565 -0.00745656 0.000688442)
(0.0029237 -0.0182724 0.000409782)
(0.00415723 -0.0318292 -0.00269698)
(-0.00780071 -0.0262265 -0.0171889)
(-0.00758062 -0.0176245 -0.0133499)
(-0.012334 -0.0117265 -0.012334)
(-0.0130648 -0.00789205 -0.0130967)
(-0.012691 -0.00519538 -0.0146117)
(-0.0110438 -0.00338879 -0.016058)
(-0.00845648 -0.00168451 -0.0171023)
(-0.00498851 0.000220755 -0.0176685)
(-0.00107026 0.00288844 -0.0169733)
(0.00272119 0.00298273 -0.0158852)
(0.00574583 0.000491016 -0.0155115)
(0.00855498 -0.00121116 -0.0148273)
(0.0105501 -0.00235057 -0.0140807)
(0.0121316 -0.00303152 -0.0136142)
(0.0132348 -0.00353883 -0.0128113)
(0.0139573 -0.00408193 -0.0115303)
(0.0139689 -0.00519418 -0.00965899)
(0.0132389 -0.0080401 -0.0077997)
(0.0090174 -0.0140434 -0.00679802)
(0.00776464 -0.0233681 -0.0073068)
(-0.0151175 -0.0135579 -0.0241279)
(-0.0217578 -0.00613366 -0.0255486)
(-0.0287759 -0.00213169 -0.0287759)
(-0.0306199 0.000161964 -0.0324024)
(-0.0299861 0.00174629 -0.0359843)
(-0.0272092 0.00303772 -0.0393894)
(-0.0222656 0.00438154 -0.0421553)
(-0.0151907 0.00602028 -0.0438113)
(-0.0074689 0.00824345 -0.0434086)
(0.0062859 0.00889991 -0.0418685)
(0.0141452 0.00646873 -0.0408891)
(0.0208444 0.00469748 -0.038614)
(0.0254492 0.0033444 -0.0358762)
(0.028254 0.00222703 -0.0329744)
(0.0297124 0.00127733 -0.0301878)
(0.030071 0.000366394 -0.0274715)
(0.0293151 -0.000670549 -0.024587)
(0.0270895 -0.00225677 -0.0212795)
(0.0207586 -0.00549947 -0.0174811)
(0.0140264 -0.0120716 -0.0137098)
(0.00557963 -0.000240329 0.0199338)
(0.00843191 0.00321027 0.016419)
(0.00853057 0.00510914 0.00976472)
(0.00483606 0.000897151 0.00483606)
(0.00441743 -0.00231128 0.00336874)
(0.00470337 -0.00188437 0.00266901)
(0.00475223 -0.000886731 0.0021536)
(0.00427538 -0.000384978 0.00156046)
(0.00356759 -0.000286993 0.0008931)
(0.0028016 -0.000408946 0.000444559)
(0.00223371 -0.00062913 -0.000248289)
(0.00212474 -0.000826598 -0.00100135)
(0.00267646 -0.000935168 -0.00152162)
(0.00404317 -0.00109012 -0.00142977)
(0.00616439 -0.00132067 -7.70981e-05)
(0.00843187 -0.00110883 0.00348865)
(0.00975759 0.000678466 0.00932457)
(-0.00220512 0.00452438 0.0189065)
(-0.0132397 -0.000873028 0.0231877)
(-0.00793182 -0.0117957 0.0228829)
(0.00367335 0.00149891 0.0165939)
(0.00755807 0.0058555 0.0166054)
(0.0109238 0.008431 0.0141393)
(0.0115174 0.00643793 0.0115174)
(0.00992784 0.00234916 0.00815075)
(0.00665663 -0.000968598 0.00492464)
(0.0049274 -0.00141762 0.00305158)
(0.00389786 -0.000760475 0.00205403)
(0.00287104 -0.000370069 0.00159228)
(0.00174423 -0.000426461 0.00148714)
(0.000797375 -0.000691519 0.0013951)
(0.000304137 -0.000958508 0.00132353)
(0.000330678 -0.00116714 0.00151275)
(0.000821013 -0.00150446 0.00227493)
(0.00160209 -0.00197325 0.00372243)
(0.00166073 -0.00137799 0.00616474)
(-0.000549627 0.00405552 0.0115124)
(-0.00748581 0.0097437 0.0178786)
(-0.0112611 0.00227517 0.0194634)
(-0.00420791 -0.0200291 0.0173268)
(0.00389503 -0.00966417 0.00946147)
(0.00800899 -0.00303685 0.0142611)
(0.0119926 0.00324329 0.0156375)
(0.014373 0.00529303 0.014373)
(0.0142595 0.00462595 0.0118722)
(0.0119786 0.00307268 0.00892591)
(0.00873593 0.00134002 0.00612841)
(0.00605734 0.000328261 0.00412144)
(0.00399012 -3.72866e-05 0.00305027)
(0.00206647 -0.000302836 0.00272962)
(0.000442644 -0.000570921 0.00284436)
(-0.000603368 -0.000690044 0.0033284)
(-0.0011507 -0.000680804 0.00425274)
(-0.00148482 -0.000708169 0.0056937)
(-0.00203216 -0.000459254 0.00761448)
(-0.00374581 0.00192924 0.0101818)
(-0.00591428 0.00707275 0.0136063)
(-0.00906451 0.00945425 0.0174903)
(-0.0080601 -0.00363251 0.0183495)
(-0.0021195 -0.0282481 0.013391)
(0.00401638 -0.0180557 0.000972103)
(0.00918196 -0.0096782 0.00844707)
(0.0119361 -0.00299135 0.0131014)
(0.0142858 0.00203315 0.0142858)
(0.0149077 0.00435106 0.0132254)
(0.013766 0.00482546 0.0112116)
(0.0116508 0.00445085 0.00895407)
(0.00923248 0.00383538 0.00683836)
(0.0067164 0.00308764 0.00524244)
(0.00415461 0.00220379 0.00441489)
(0.00178047 0.00128454 0.00426117)
(-0.000126184 0.000715594 0.00477822)
(-0.00149072 0.00072901 0.00597588)
(-0.00269887 0.00115969 0.00775141)
(-0.00415917 0.00218241 0.00992599)
(-0.00567723 0.00445082 0.0122382)
(-0.00686759 0.00809173 0.0149447)
(-0.00751796 0.00785288 0.0177255)
(-0.00516648 -0.00746594 0.0172545)
(-0.00111601 -0.0320323 0.00981882)
(0.00262219 -0.0254642 -0.00489382)
(0.00940119 -0.0137145 0.00376394)
(0.0109303 -0.00631824 0.00951997)
(0.0122682 -0.000198595 0.0122682)
(0.0126217 0.00385682 0.0125369)
(0.0119395 0.00577656 0.0113168)
(0.0106071 0.0063245 0.00952298)
(0.0089996 0.00627481 0.00767501)
(0.00724903 0.0059609 0.00616185)
(0.00535029 0.00531718 0.00522452)
(0.00342875 0.00430287 0.00484762)
(0.00164934 0.00331227 0.00507214)
(-2.1572e-06 0.00286254 0.00596018)
(-0.00151223 0.00312517 0.0074982)
(-0.00301148 0.00398828 0.00954904)
(-0.00433135 0.00569305 0.0119682)
(-0.00522402 0.00784826 0.0147265)
(-0.00453059 0.00518836 0.0171043)
(-0.0036271 -0.0109994 0.0148376)
(-0.000205029 -0.0337694 0.00613198)
(0.000455477 -0.0306726 -0.0085171)
(0.00820253 -0.0162382 0.000361131)
(0.00867623 -0.0076732 0.0063437)
(0.00931837 -0.000797035 0.00931837)
(0.00922167 0.00392854 0.0100091)
(0.00875282 0.00644439 0.00915534)
(0.00806319 0.0074967 0.00770376)
(0.00728093 0.0078981 0.00627265)
(0.00635863 0.00797112 0.0051302)
(0.00518182 0.00752267 0.00440178)
(0.00392158 0.00642708 0.00402212)
(0.00273588 0.00523599 0.00403986)
(0.00154801 0.00450743 0.00448048)
(0.000370227 0.00443534 0.00544403)
(-0.000799989 0.00501485 0.00715113)
(-0.00174369 0.00615884 0.00959695)
(-0.0026188 0.0070937 0.0126072)
(-0.00148735 0.00276087 0.0146097)
(-0.00257339 -0.0129412 0.0111191)
(0.000930066 -0.0339878 0.00243608)
(-0.00202872 -0.0333162 -0.0115607)
(0.00534701 -0.0175105 -0.00323222)
(0.00480236 -0.0077931 0.00265603)
(0.00542874 -0.000847448 0.00542874)
(0.00502215 0.00378804 0.00573717)
(0.00505101 0.00624118 0.0049098)
(0.00522101 0.00746664 0.00380634)
(0.00532553 0.00826726 0.00288321)
(0.0050963 0.00889546 0.00228849)
(0.00439326 0.0087506 0.00193857)
(0.00362086 0.00744587 0.00165217)
(0.00303554 0.00591596 0.00163895)
(0.00242002 0.00480627 0.00186837)
(0.00179387 0.00437343 0.00242229)
(0.00124346 0.00462642 0.0035733)
(0.000896126 0.0054161 0.00564939)
(0.000295232 0.00559461 0.00861681)
(0.00113393 0.000800185 0.0102242)
(-0.000939859 -0.0135861 0.0063627)
(0.00253359 -0.0325646 -0.00108447)
(-0.00497264 -0.0319487 -0.0148918)
(-9.88463e-05 -0.0174328 -0.00812712)
(-0.0023343 -0.00643785 -0.00312239)
(-0.000970396 0.000927504 -0.000970396)
(-0.00106902 0.0044444 -0.00141019)
(-0.000434939 0.00615617 -0.00254258)
(0.000560384 0.00736738 -0.00380071)
(0.0017446 0.00879059 -0.00463674)
(0.00261165 0.0103116 -0.00469728)
(0.00278506 0.0104688 -0.00426008)
(0.00298744 0.00867495 -0.00407891)
(0.00353422 0.00680708 -0.00369728)
(0.00382971 0.00547311 -0.00326618)
(0.00394602 0.00469332 -0.0027111)
(0.00399219 0.00444618 -0.00174814)
(0.00398318 0.00479486 0.000106794)
(0.00380377 0.00464013 0.00265974)
(0.00441581 6.62791e-05 0.00370043)
(0.00236992 -0.012662 0.000679228)
(0.00489274 -0.0289173 -0.00457598)
(-0.00944919 -0.0252683 -0.0194773)
(-0.00905147 -0.0148927 -0.0151968)
(-0.0130967 -0.00789205 -0.0130648)
(-0.013038 -0.00333452 -0.013038)
(-0.0125432 -0.000290916 -0.0144704)
(-0.0111863 0.00151622 -0.0165379)
(-0.00894918 0.00301569 -0.0184239)
(-0.00563115 0.00490348 -0.0196103)
(-0.00167845 0.00770905 -0.0193086)
(0.00233019 0.00785335 -0.0178431)
(0.00546133 0.00465198 -0.016823)
(0.00805918 0.00238077 -0.0154655)
(0.00951577 0.00100208 -0.0141542)
(0.0101764 0.000156705 -0.0128897)
(0.0104042 -0.000314791 -0.0113992)
(0.0105604 -0.000431388 -0.00941803)
(0.0106054 -0.000876263 -0.00699202)
(0.0113443 -0.00395013 -0.006075)
(0.00872145 -0.0111353 -0.00685475)
(0.00864302 -0.0220059 -0.00890571)
(-0.017562 -0.0125904 -0.0262185)
(-0.0250067 -0.00422382 -0.0276424)
(-0.0324024 0.000161964 -0.0306199)
(-0.0340765 0.00263272 -0.0340765)
(-0.0331207 0.0043193 -0.0376179)
(-0.0302361 0.00576906 -0.0413647)
(-0.025284 0.00732711 -0.0449329)
(-0.0178322 0.00928286 -0.0475441)
(-0.00907923 0.0119397 -0.047956)
(0.00671723 0.0130032 -0.0463849)
(0.0161129 0.0097894 -0.0443241)
(0.0232104 0.00744252 -0.0409202)
(0.0275156 0.00569533 -0.0371908)
(0.029823 0.00430072 -0.0336916)
(0.0307754 0.00313654 -0.0305137)
(0.0307649 0.00211846 -0.027515)
(0.0300243 0.00108217 -0.0245063)
(0.0282347 -0.0005481 -0.0213943)
(0.0222096 -0.00399748 -0.0180487)
(0.0154389 -0.0111385 -0.0148779)
(0.00238954 0.00140686 0.00824197)
(0.00355657 0.00144989 0.00686235)
(0.0034739 -0.000496553 0.00454756)
(0.00336874 -0.00231128 0.00441743)
(0.00431622 -0.00256338 0.00431622)
(0.00504837 -0.00167618 0.00400218)
(0.00526315 -0.000770762 0.00354625)
(0.00459403 -0.000351934 0.00290712)
(0.00351979 -0.000417043 0.00215597)
(0.00209634 -0.000683732 0.00193733)
(0.000715224 -0.000933842 0.00120784)
(0.000259869 -0.00106066 5.37427e-05)
(0.000537144 -0.000855575 -0.0011212)
(0.00183685 -0.000756025 -0.00181499)
(0.00410066 -0.000706298 -0.00120091)
(0.00656474 0.000221429 0.00291684)
(0.0076049 0.00260796 0.0111447)
(-0.00453926 0.00523155 0.0217976)
(-0.0117914 -0.000155575 0.0250118)
(-0.00766906 -0.00906636 0.0247057)
(0.00306942 0.00523565 0.0148808)
(0.00596555 0.00611749 0.0147107)
(0.00816575 0.00544163 0.012905)
(0.00815075 0.00234916 0.00992784)
(0.00667874 -0.00112474 0.00667874)
(0.00542193 -0.00218462 0.00478167)
(0.00472077 -0.00154376 0.00368817)