/*--------------------------------*- C++ -*----------------------------------*\
  =========                 |
  \\      /  F ield         | OpenFOAM: The Open Source CFD Toolbox
   \\    /   O peration     | Website:  https://openfoam.org
    \\  /    A nd           | Version:  8
     \\/     M anipulation  |
\*---------------------------------------------------------------------------*/
FoamFile
{
    version     2.0;
    format      ascii;
    class       volScalarField;
    location    "1400";
    object      epsilon;
}
// * * * * * * * * * * * * * * * * * * * * * * * * * * * * * * * * * * * * * //

dimensions      [0 2 -3 0 0 0 0];

internalField   nonuniform List<scalar> 
4000
(
3.25637e-07
3.02459e-07
2.68275e-07
2.33329e-07
1.78714e-07
2.85369e-08
1.53195e-08
1.37104e-08
1.25064e-08
1.15429e-08
1.09192e-08
1.15666e-08
1.86183e-08
1.13311e-07
1.68374e-07
1.97606e-07
2.16563e-07
2.33209e-07
2.56814e-07
2.83732e-07
3.62487e-07
3.32641e-07
2.72433e-07
2.01689e-07
1.5783e-07
4.79982e-08
2.19226e-08
2.3652e-08
2.34703e-08
2.23361e-08
2.02526e-08
2.19467e-08
4.10255e-08
8.88405e-08
1.24337e-07
1.42487e-07
1.66921e-07
2.08999e-07
2.69148e-07
3.20118e-07
3.84347e-07
3.61646e-07
2.96244e-07
1.93481e-07
1.43033e-07
8.05406e-08
5.47034e-08
3.29962e-08
2.97992e-08
3.05745e-08
2.74609e-08
2.81242e-08
3.99336e-08
6.41219e-08
8.96695e-08
9.43375e-08
1.2079e-07
2.02041e-07
2.88213e-07
3.41145e-07
3.96035e-07
3.85343e-07
3.33735e-07
2.61661e-07
1.51255e-07
1.32585e-07
1.16284e-07
7.30385e-08
4.4728e-08
3.35182e-08
3.32315e-08
3.80295e-08
5.49961e-08
7.31759e-08
9.30871e-08
1.27435e-07
1.78532e-07
2.43538e-07
3.12514e-07
3.51818e-07
4.0473e-07
4.09398e-07
3.84274e-07
3.40989e-07
2.9115e-07
2.62839e-07
2.31628e-07
1.88896e-07
1.28527e-07
1.11481e-07
1.23552e-07
1.45596e-07
1.66702e-07
1.86615e-07
2.08334e-07
2.34854e-07
2.68385e-07
3.09121e-07
3.47992e-07
3.61951e-07
4.1367e-07
4.36105e-07
4.37843e-07
4.27406e-07
4.087e-07
3.89446e-07
3.61902e-07
3.24299e-07
2.78948e-07
2.49846e-07
2.54808e-07
2.67646e-07
2.82984e-07
2.98945e-07
3.15295e-07
3.32668e-07
3.51174e-07
3.69592e-07
3.81014e-07
3.70568e-07
4.24239e-07
4.6515e-07
4.91708e-07
5.09072e-07
5.18429e-07
5.15156e-07
4.96024e-07
4.62054e-07
4.16029e-07
3.74482e-07
3.73098e-07
3.81945e-07
3.93735e-07
4.05374e-07
4.15253e-07
4.2225e-07
4.24928e-07
4.22506e-07
4.10304e-07
3.77876e-07
4.38241e-07
4.99853e-07
5.50344e-07
5.92451e-07
6.25691e-07
6.42695e-07
6.36784e-07
6.0775e-07
5.57926e-07
5.01679e-07
4.92621e-07
4.97679e-07
5.05895e-07
5.12531e-07
5.14204e-07
5.08472e-07
4.94672e-07
4.73043e-07
4.3978e-07
3.85923e-07
4.59305e-07
5.47681e-07
6.2556e-07
6.91519e-07
7.45986e-07
7.83356e-07
7.93582e-07
7.71712e-07
7.23151e-07
6.49621e-07
6.3008e-07
6.30502e-07
6.33335e-07
6.32074e-07
6.22697e-07
6.03002e-07
5.73097e-07
5.33075e-07
4.77504e-07
3.99286e-07
4.92933e-07
6.11264e-07
7.20024e-07
8.09358e-07
8.84182e-07
9.41335e-07
9.76146e-07
9.84717e-07
9.65573e-07
9.01624e-07
8.65103e-07
8.50799e-07
8.33577e-07
8.08758e-07
7.75162e-07
7.32386e-07
6.79748e-07
6.15092e-07
5.30228e-07
4.23405e-07
3.02459e-07
3.17327e-07
2.92052e-07
2.46927e-07
1.88954e-07
4.9043e-08
2.51248e-08
2.17189e-08
1.87446e-08
1.75131e-08
1.71876e-08
1.97225e-08
5.85484e-08
1.41796e-07
1.92429e-07
2.24779e-07
2.48591e-07
2.71246e-07
2.96389e-07
2.96618e-07
3.32641e-07
3.29081e-07
2.85403e-07
2.12306e-07
1.72018e-07
8.45088e-08
3.68657e-08
2.62137e-08
2.2202e-08
2.24466e-08
2.6413e-08
3.76992e-08
6.27803e-08
1.13742e-07
1.53018e-07
1.67657e-07
1.78167e-07
2.19655e-07
2.99164e-07
3.38439e-07
3.61646e-07
3.67474e-07
3.532e-07
2.65462e-07
1.68458e-07
1.0118e-07
6.99386e-08
5.44827e-08
3.86775e-08
3.26314e-08
3.44245e-08
4.19407e-08
5.87023e-08
8.67709e-08
1.05388e-07
1.10628e-07
1.33485e-07
2.17612e-07
3.31778e-07
3.64824e-07
3.85343e-07
3.96971e-07
4.01927e-07
3.39516e-07
1.88119e-07
1.30735e-07
9.84023e-08
7.21178e-08
5.27692e-08
4.26677e-08
4.16516e-08
4.68905e-08
6.04765e-08
8.12356e-08
9.73282e-08
1.14642e-07
1.51691e-07
2.53093e-07
3.73851e-07
3.80482e-07
4.09398e-07
4.20465e-07
4.34125e-07
4.00251e-07
2.74033e-07
2.09802e-07
1.63426e-07
1.19461e-07
8.26906e-08
7.06599e-08
7.4502e-08
8.49651e-08
1.02485e-07
1.23832e-07
1.46259e-07
1.70788e-07
2.23968e-07
3.12559e-07
3.95556e-07
3.92911e-07
4.36105e-07
4.32964e-07
4.42064e-07
4.38529e-07
3.70872e-07
3.0432e-07
2.44397e-07
1.88723e-07
1.45589e-07
1.29061e-07
1.32889e-07
1.42313e-07
1.58182e-07
1.79788e-07
2.05589e-07
2.38841e-07
2.91477e-07
3.52276e-07
3.94994e-07
4.01854e-07
4.6515e-07
4.40318e-07
4.34617e-07
4.39035e-07
4.49331e-07
4.07172e-07
3.34242e-07
2.6372e-07
2.11951e-07
1.88705e-07
1.90202e-07
1.99147e-07
2.14324e-07
2.35748e-07
2.65524e-07
3.01474e-07
3.28933e-07
3.57021e-07
3.80819e-07
4.10985e-07
4.99853e-07
4.62769e-07
4.48869e-07
4.5839e-07
4.88901e-07
4.97816e-07
4.75857e-07
4.33889e-07
3.57932e-07
3.04933e-07
3.00522e-07
3.14583e-07
3.32842e-07
3.49459e-07
3.58811e-07
3.58359e-07
3.54128e-07
3.61204e-07
3.86556e-07
4.2647e-07
5.47681e-07
5.5735e-07
5.76673e-07
6.07623e-07
6.53386e-07
6.99797e-07
7.08144e-07
6.59894e-07
5.68824e-07
4.61506e-07
4.5006e-07
4.70052e-07
4.89869e-07
5.0083e-07
4.97085e-07
4.79864e-07
4.61563e-07
4.55301e-07
4.59228e-07
4.54061e-07
6.11264e-07
7.55813e-07
8.93676e-07
1.01691e-06
1.13209e-06
1.23069e-06
1.29806e-06
1.32172e-06
1.2968e-06
1.21025e-06
1.14511e-06
1.11881e-06
1.0858e-06
1.03952e-06
9.79488e-07
9.07587e-07
8.26551e-07
7.36061e-07
6.26584e-07
4.96132e-07
2.68275e-07
2.92052e-07
2.71413e-07
2.34404e-07
1.80426e-07
4.81422e-08
3.18793e-08
2.79917e-08
2.32412e-08
2.19977e-08
2.24047e-08
2.99405e-08
8.49846e-08
1.58099e-07
2.06014e-07
2.3928e-07
2.65489e-07
2.90453e-07
3.11982e-07
2.9676e-07
2.72433e-07
2.85403e-07
2.49417e-07
1.99649e-07
1.64637e-07
8.95039e-08
5.19871e-08
3.29275e-08
2.63666e-08
2.90169e-08
3.5815e-08
4.98333e-08
7.88448e-08
1.27363e-07
1.60221e-07
1.71709e-07
1.86364e-07
2.33555e-07
3.11183e-07
3.37972e-07
2.96244e-07
3.532e-07
3.50498e-07
2.62887e-07
1.7029e-07
1.07092e-07
7.95612e-08
6.37349e-08
4.36397e-08
3.85002e-08
4.22085e-08
5.1866e-08
7.12534e-08
9.79822e-08
1.16198e-07
1.28511e-07
1.60688e-07
2.39883e-07
3.51776e-07
3.66772e-07
3.33735e-07
4.01927e-07
3.96098e-07
3.19925e-07
1.93656e-07
1.2804e-07
9.4509e-08
7.48468e-08
6.06377e-08
4.95287e-08
4.87185e-08
5.39068e-08
6.63653e-08
8.48667e-08
9.72373e-08
1.11686e-07
1.5629e-07
2.68712e-07
3.99536e-07
3.85197e-07
3.84274e-07
4.34125e-07
4.12369e-07
3.54168e-07
2.3071e-07
1.63188e-07
1.23648e-07
9.23143e-08
6.79265e-08
5.48826e-08
5.36115e-08
6.08708e-08
7.34734e-08
8.93109e-08
1.03594e-07
1.21225e-07
1.70417e-07
2.88092e-07
4.25549e-07
3.99801e-07
4.37843e-07
4.42064e-07
4.01003e-07
3.5581e-07
2.63556e-07
2.00505e-07
1.55871e-07
1.16617e-07
8.5478e-08
6.94646e-08
6.77715e-08
7.41133e-08
8.64968e-08
1.02316e-07
1.18836e-07
1.40767e-07
1.91277e-07
2.92057e-07
4.08022e-07
4.15034e-07
4.91708e-07
4.34617e-07
3.68152e-07
3.19688e-07
2.73516e-07
2.27693e-07
1.84458e-07
1.43338e-07
1.09205e-07
9.01014e-08
8.64311e-08
9.10445e-08
1.01761e-07
1.16343e-07
1.3287e-07
1.54431e-07
1.93889e-07
2.71459e-07
3.75306e-07
4.35928e-07
5.50344e-07
4.48869e-07
3.67953e-07
2.91485e-07
2.87431e-07
2.75139e-07
2.51305e-07
2.12043e-07
1.68675e-07
1.36228e-07
1.24738e-07
1.27173e-07
1.37395e-07
1.51428e-07
1.64582e-07
1.76682e-07
1.9831e-07
2.71614e-07
3.75429e-07
4.6525e-07
6.2556e-07
5.76673e-07
5.90309e-07
6.39663e-07
6.92585e-07
7.95583e-07
8.30733e-07
7.49073e-07
5.99894e-07
4.54498e-07
4.10658e-07
4.3464e-07
4.75578e-07
5.05667e-07
5.0413e-07
4.71514e-07
4.57518e-07
4.5756e-07
4.77544e-07
5.1096e-07
7.20024e-07
8.93676e-07
1.05798e-06
1.2119e-06
1.36718e-06
1.51261e-06
1.62069e-06
1.66734e-06
1.64021e-06
1.52898e-06
1.42969e-06
1.39218e-06
1.34232e-06
1.27175e-06
1.18109e-06
1.0763e-06
9.66601e-07
8.52927e-07
7.22821e-07
5.71507e-07
2.33329e-07
2.46927e-07
2.34404e-07
2.04553e-07
1.48114e-07
4.44186e-08
3.8288e-08
3.2922e-08
2.75688e-08
2.6295e-08
2.74345e-08
3.62575e-08
9.30622e-08
1.59863e-07
2.04629e-07
2.36835e-07
2.62341e-07
2.85704e-07
3.01488e-07
2.80009e-07
2.01689e-07
2.12306e-07
1.99649e-07
1.75241e-07
1.4237e-07
8.65397e-08
5.58656e-08
3.74088e-08
3.10925e-08
3.60708e-08
4.30139e-08
5.59034e-08
8.51162e-08
1.29641e-07
1.57697e-07
1.694e-07
1.86026e-07
2.32186e-07
2.97165e-07
3.13591e-07
1.93481e-07
2.65462e-07
2.62887e-07
2.03797e-07
1.44851e-07
1.01706e-07
8.33289e-08
6.36083e-08
4.56791e-08
4.59322e-08
5.01305e-08
5.88521e-08
7.77168e-08
1.03814e-07
1.24059e-07
1.4402e-07
1.83366e-07
2.55054e-07
3.48752e-07
3.46272e-07
2.61661e-07
3.39516e-07
3.19925e-07
2.49461e-07
1.65337e-07
1.17925e-07
9.23075e-08
7.73148e-08
6.53741e-08
5.7157e-08
5.73601e-08
6.0938e-08
7.32079e-08
9.0801e-08
1.06899e-07
1.32586e-07
1.88733e-07
2.83745e-07
3.99118e-07
3.73269e-07
3.40989e-07
4.00251e-07
3.54168e-07
2.82429e-07
1.91068e-07
1.38516e-07
1.07622e-07
8.44839e-08
6.66407e-08
5.60548e-08
5.56993e-08
5.98873e-08
7.03077e-08
8.50732e-08
9.80917e-08
1.19584e-07
1.73834e-07
2.87992e-07
4.26288e-07
3.98152e-07
4.27406e-07
4.38529e-07
3.5581e-07
2.85037e-07
2.06971e-07
1.56721e-07
1.22974e-07
9.45117e-08
7.09763e-08
5.61166e-08
5.24932e-08
5.73991e-08
6.80063e-08
8.2062e-08
9.44554e-08
1.11785e-07
1.58519e-07
2.66496e-07
4.16963e-07
4.24581e-07
5.09072e-07
4.39035e-07
3.19688e-07
2.56352e-07
2.06497e-07
1.70246e-07
1.40915e-07
1.12736e-07
8.62803e-08
6.6886e-08
5.90666e-08
6.17969e-08
7.20353e-08
8.56234e-08
9.71806e-08
1.10058e-07
1.44807e-07
2.28986e-07
3.76927e-07
4.58449e-07
5.92451e-07
4.5839e-07
2.91485e-07
2.5864e-07
2.60308e-07
2.6761e-07
2.65407e-07
2.39172e-07
1.90099e-07
1.40593e-07
1.17764e-07
1.22284e-07
1.40955e-07
1.59882e-07
1.66006e-07
1.61943e-07
1.71402e-07
2.3105e-07
3.76805e-07
5.00931e-07
6.91519e-07
6.07623e-07
6.39663e-07
7.10553e-07
8.87434e-07
1.10635e-06
1.21773e-06
1.16027e-06
9.75062e-07
7.51844e-07
6.56756e-07
6.86881e-07
7.45678e-07
7.71879e-07
7.31275e-07
6.33316e-07
5.41008e-07
5.16551e-07
5.12e-07
5.64083e-07
8.09358e-07
1.01691e-06
1.2119e-06
1.40123e-06
1.61007e-06
1.81683e-06
1.98212e-06
2.07884e-06
2.09041e-06
1.99727e-06
1.83337e-06
1.75512e-06
1.66466e-06
1.55021e-06
1.41202e-06
1.25838e-06
1.10741e-06
9.66078e-07
8.11916e-07
6.37042e-07
1.78714e-07
1.88954e-07
1.80426e-07
1.48114e-07
1.07367e-07
3.86035e-08
4.32043e-08
3.70574e-08
3.2783e-08
3.20104e-08
3.14037e-08
3.74728e-08
8.57451e-08
1.46154e-07
1.86683e-07
2.15821e-07
2.37778e-07
2.5446e-07
2.64246e-07
2.4516e-07
1.5783e-07
1.72018e-07
1.64637e-07
1.4237e-07
1.14076e-07
8.45722e-08
5.73678e-08
4.06634e-08
3.64718e-08
4.30871e-08
4.59776e-08
5.66019e-08
8.2e-08
1.21106e-07
1.47364e-07
1.61068e-07
1.75191e-07
2.06056e-07
2.55686e-07
2.60956e-07
1.43033e-07
1.68458e-07
1.7029e-07
1.44851e-07
1.17723e-07
9.64168e-08
8.16103e-08
5.98511e-08
4.92217e-08
5.34117e-08
5.45243e-08
6.05691e-08
7.79296e-08
1.02111e-07
1.23121e-07
1.46549e-07
1.87346e-07
2.53022e-07
3.27553e-07
3.00498e-07
1.51255e-07
1.88119e-07
1.93656e-07
1.65337e-07
1.29208e-07
1.05514e-07
8.95443e-08
7.6902e-08
6.53749e-08
6.59818e-08
6.48643e-08
6.49172e-08
7.61873e-08
9.34449e-08
1.13256e-07
1.4576e-07
2.05178e-07
2.93958e-07
3.90867e-07
3.44719e-07
2.9115e-07
2.74033e-07
2.3071e-07
1.91068e-07
1.4673e-07
1.17877e-07
9.73576e-08
8.06544e-08
6.78059e-08
6.50284e-08
6.80972e-08
6.64297e-08
7.47449e-08
8.8927e-08
1.05421e-07
1.35173e-07
1.9415e-07
2.92267e-07
4.1984e-07
3.86704e-07
4.087e-07
3.70872e-07
2.63556e-07
2.06971e-07
1.61148e-07
1.2991e-07
1.05849e-07
8.49018e-08
6.79117e-08
5.99582e-08
6.21199e-08
6.32041e-08
7.09823e-08
8.43858e-08
9.73389e-08
1.1742e-07
1.62397e-07
2.55137e-07
4.16649e-07
4.28062e-07
5.18429e-07
4.49331e-07
2.73516e-07
2.06497e-07
1.70341e-07
1.45971e-07
1.24685e-07
1.03819e-07
8.37813e-08
6.93979e-08
6.52695e-08
6.71327e-08
7.53351e-08
8.75505e-08
9.72572e-08
1.0687e-07
1.36762e-07
2.08485e-07
3.79495e-07
4.74732e-07
6.25691e-07
4.88901e-07
2.87431e-07
2.60308e-07
2.71916e-07
2.94229e-07
3.01655e-07
2.76923e-07
2.22102e-07
1.63974e-07
1.36394e-07
1.4436e-07
1.71014e-07
1.93027e-07
1.92843e-07
1.76858e-07
1.756e-07
2.15695e-07
3.82881e-07
5.29494e-07
7.45986e-07
6.53386e-07
6.92585e-07
8.87434e-07
1.18611e-06
1.50839e-06
1.65858e-06
1.56733e-06
1.29287e-06
9.84488e-07
8.47066e-07
9.03687e-07
1.0051e-06
1.03984e-06
9.64308e-07
8.11184e-07
6.57994e-07
5.7964e-07
5.48187e-07
6.08775e-07
8.84182e-07
1.13209e-06
1.36718e-06
1.61007e-06
1.88283e-06
2.15467e-06
2.38711e-06
2.55186e-06
2.62997e-06
2.59104e-06
2.34349e-06
2.20192e-06
2.04975e-06
1.87362e-06
1.67491e-06
1.46469e-06
1.26315e-06
1.08367e-06
8.99152e-07
6.96227e-07
2.85369e-08
4.9043e-08
4.81422e-08
4.44186e-08
3.86035e-08
4.28593e-08
4.45314e-08
4.02144e-08
3.91889e-08
3.87687e-08
3.52386e-08
3.8474e-08
6.87748e-08
1.18194e-07
1.51645e-07
1.76666e-07
1.95022e-07
2.06569e-07
2.09066e-07
1.96463e-07
4.79982e-08
8.45088e-08
8.95039e-08
8.65397e-08
8.45722e-08
6.84434e-08
4.97418e-08
4.03821e-08
4.30723e-08
5.01161e-08
4.59467e-08
5.2658e-08
7.22941e-08
1.02439e-07
1.2654e-07
1.42594e-07
1.53321e-07
1.62861e-07
1.7304e-07
1.72607e-07
8.05406e-08
1.0118e-07
1.07092e-07
1.01706e-07
9.64168e-08
8.78413e-08
7.06755e-08
5.3919e-08
5.40468e-08
5.92714e-08
5.3543e-08
5.74047e-08
7.18146e-08
9.07583e-08
1.06736e-07
1.22011e-07
1.44352e-07
1.81317e-07
2.32393e-07
2.26848e-07
1.32585e-07
1.30735e-07
1.2804e-07
1.17925e-07
1.05514e-07
9.46727e-08
8.43349e-08
7.13716e-08
6.6604e-08
7.5283e-08
6.54004e-08
6.27194e-08
7.18892e-08
8.57481e-08
1.00216e-07
1.22177e-07
1.63886e-07
2.36153e-07
3.38928e-07
3.04278e-07
2.62839e-07
2.09802e-07
1.63188e-07
1.38516e-07
1.17877e-07
1.01911e-07
8.84603e-08
7.74927e-08
7.21185e-08
8.20319e-08
7.66385e-08
6.76736e-08
7.30291e-08
8.47117e-08
9.90273e-08
1.2463e-07
1.76054e-07
2.65199e-07
3.99865e-07
3.70229e-07
3.89446e-07
3.0432e-07
2.00505e-07
1.56721e-07
1.2991e-07
1.1002e-07
9.29374e-08
7.87342e-08
7.09333e-08
7.84701e-08
7.97165e-08
6.92307e-08
7.26647e-08
8.3907e-08
9.67402e-08
1.17866e-07
1.61819e-07
2.44899e-07
4.14313e-07
4.26959e-07
5.15156e-07
4.07172e-07
2.27693e-07
1.70246e-07
1.45971e-07
1.29681e-07
1.14674e-07
1.0044e-07
8.94382e-08
8.95376e-08
8.87233e-08
7.9529e-08
8.20485e-08
9.19388e-08
1.01087e-07
1.11842e-07
1.3833e-07
2.00955e-07
3.88035e-07
4.84907e-07
6.42695e-07
4.97816e-07
2.75139e-07
2.6761e-07
2.94229e-07
3.27256e-07
3.38211e-07
3.07193e-07
2.45465e-07
1.90342e-07
1.63885e-07
1.73742e-07
2.08123e-07
2.28826e-07
2.22926e-07
1.99044e-07
1.89675e-07
2.17214e-07
3.91244e-07
5.49041e-07
7.83356e-07
6.99797e-07
7.95583e-07
1.10635e-06
1.50839e-06
1.87707e-06
2.02215e-06
1.83941e-06
1.48474e-06
1.1812e-06
1.01945e-06
1.11064e-06
1.27682e-06
1.33095e-06
1.21489e-06
9.85773e-07
7.60315e-07
6.14981e-07
5.72688e-07
6.40812e-07
9.41335e-07
1.23069e-06
1.51261e-06
1.81683e-06
2.15467e-06
2.49783e-06
2.81463e-06
3.08153e-06
3.28742e-06
3.38268e-06
3.01388e-06
2.75471e-06
2.49943e-06
2.23358e-06
1.9569e-06
1.67941e-06
1.42108e-06
1.19757e-06
9.79822e-07
7.47366e-07
1.53195e-08
2.51248e-08
3.18793e-08
3.8288e-08
4.32043e-08
4.45314e-08
4.22915e-08
4.14443e-08
4.57548e-08
4.73433e-08
4.00459e-08
3.98253e-08
4.96819e-08
7.14937e-08
8.06085e-08
9.04793e-08
1.08387e-07
1.25117e-07
1.28333e-07
1.06998e-07
2.19226e-08
3.68657e-08
5.19871e-08
5.58656e-08
5.73678e-08
4.97418e-08
4.20439e-08
4.00829e-08
5.28074e-08
6.18221e-08
4.70999e-08
4.71548e-08
5.87752e-08
7.243e-08
8.36156e-08
9.37425e-08
1.04553e-07
1.09027e-07
1.00321e-07
7.73309e-08
5.47034e-08
6.99386e-08
7.95612e-08
8.33289e-08
8.16103e-08
7.06755e-08
5.66412e-08
5.17609e-08
6.90117e-08
7.51764e-08
5.43863e-08
5.13821e-08
6.10615e-08
7.28982e-08
8.13008e-08
8.75257e-08
9.48611e-08
1.06285e-07
1.28992e-07
1.56804e-07
1.16284e-07
9.84023e-08
9.4509e-08
9.23075e-08
8.95443e-08
8.43349e-08
7.41382e-08
6.76172e-08
9.04275e-08
1.09244e-07
7.17319e-08
5.70924e-08
6.20587e-08
7.15461e-08
7.96194e-08
8.85038e-08
1.06205e-07
1.44592e-07
2.20051e-07
2.60519e-07
2.31628e-07
1.63426e-07
1.23648e-07
1.07622e-07
9.73576e-08
8.84603e-08
8.08849e-08
7.85203e-08
1.02741e-07
1.51211e-07
9.65726e-08
6.42892e-08
6.42763e-08
7.21675e-08
8.15821e-08
9.64633e-08
1.28769e-07
1.97388e-07
3.34862e-07
3.45964e-07
3.61902e-07
2.44397e-07
1.55871e-07
1.22974e-07
1.05849e-07
9.29374e-08
8.26025e-08
7.97732e-08
1.05984e-07
1.83188e-07
1.23814e-07
7.12391e-08
6.65627e-08
7.39099e-08
8.4037e-08
1.00675e-07
1.3651e-07
2.13194e-07
3.91745e-07
4.17855e-07
4.96024e-07
3.34242e-07
1.84458e-07
1.40915e-07
1.24685e-07
1.14674e-07
1.06657e-07
1.0404e-07
1.28917e-07
2.14688e-07
1.62749e-07
9.07459e-08
8.18975e-08
8.76862e-08
9.50425e-08
1.05425e-07
1.29621e-07
1.86662e-07
3.86918e-07
4.85488e-07
6.36784e-07
4.75857e-07
2.51305e-07
2.65407e-07
3.01655e-07
3.38211e-07
3.44966e-07
3.11461e-07
2.77484e-07
3.13919e-07
2.47917e-07
2.00281e-07
2.29705e-07
2.48765e-07
2.38646e-07
2.12717e-07
1.97447e-07
2.15604e-07
3.9123e-07
5.56995e-07
7.93582e-07
7.08144e-07
8.30733e-07
1.21773e-06
1.65858e-06
2.02215e-06
2.09224e-06
1.85564e-06
1.62622e-06
1.67267e-06
1.35491e-06
1.30195e-06
1.49098e-06
1.55677e-06
1.40522e-06
1.12535e-06
8.39405e-07
6.33205e-07
5.82671e-07
6.59342e-07
9.76146e-07
1.29806e-06
1.62069e-06
1.98212e-06
2.38711e-06
2.81463e-06
3.24718e-06
3.68969e-06
4.15629e-06
4.56245e-06
3.97367e-06
3.4552e-06
3.01223e-06
2.61224e-06
2.23677e-06
1.88472e-06
1.56762e-06
1.2992e-06
1.04852e-06
7.88464e-07
1.37104e-08
2.17189e-08
2.79917e-08
3.2922e-08
3.70574e-08
4.02144e-08
4.14443e-08
4.55459e-08
5.66584e-08
6.0135e-08
4.84458e-08
4.45776e-08
4.54987e-08
4.57765e-08
4.45278e-08
4.46286e-08
4.3183e-08
4.12659e-08
3.81068e-08
3.25176e-08
2.3652e-08
2.62137e-08
3.29275e-08
3.74088e-08
4.06634e-08
4.03821e-08
4.00829e-08
4.82891e-08
7.89813e-08
1.07292e-07
6.62001e-08
4.7507e-08
4.88369e-08
5.23487e-08
5.10725e-08
4.84438e-08
4.76967e-08
4.45085e-08
4.08552e-08
4.88592e-08
3.29962e-08
5.44827e-08
6.37349e-08
6.36083e-08
5.98511e-08
5.3919e-08
5.17609e-08
6.82062e-08
1.36874e-07
2.39932e-07
1.29742e-07
5.72238e-08
5.26764e-08
5.80071e-08
6.13176e-08
6.05652e-08
6.07601e-08
6.89438e-08
9.33876e-08
1.40148e-07
7.30385e-08
7.21178e-08
7.48468e-08
7.73148e-08
7.6902e-08
7.13716e-08
6.76172e-08
9.49169e-08
2.2898e-07
4.58687e-07
2.36836e-07
7.2401e-08
5.53531e-08
5.92198e-08
6.40794e-08
6.89436e-08
7.97954e-08
1.06919e-07
1.68462e-07
2.38267e-07
1.88896e-07
1.19461e-07
9.23143e-08
8.44839e-08
8.06544e-08
7.74927e-08
7.85203e-08
1.16123e-07
3.15501e-07
7.74768e-07
3.90961e-07
9.35844e-08
5.88446e-08
6.08824e-08
6.75924e-08
7.86806e-08
1.01798e-07
1.52978e-07
2.68117e-07
3.23463e-07
3.24299e-07
1.88723e-07
1.16617e-07
9.45117e-08
8.49018e-08
7.87342e-08
7.97732e-08
1.24368e-07
3.96189e-07
1.12708e-06
5.86035e-07
1.21279e-07
6.35935e-08
6.35977e-08
7.09974e-08
8.46725e-08
1.13452e-07
1.78448e-07
3.44033e-07
3.98914e-07
4.62054e-07
2.6372e-07
1.43338e-07
1.12736e-07
1.03819e-07
1.0044e-07
1.0404e-07
1.52358e-07
4.72625e-07
1.42409e-06
7.81457e-07
1.66218e-07
8.43497e-08
8.10684e-08
8.57868e-08
9.46899e-08
1.1517e-07
1.65635e-07
3.58324e-07
4.71235e-07
6.0775e-07
4.33889e-07
2.12043e-07
2.39172e-07
2.76923e-07
3.07193e-07
3.11461e-07
3.23604e-07
6.00387e-07
1.69876e-06
9.28177e-07
2.76867e-07
2.29208e-07
2.43467e-07
2.35403e-07
2.11561e-07
1.93657e-07
2.03008e-07
3.73874e-07
5.49176e-07
7.71712e-07
6.59894e-07
7.49073e-07
1.16027e-06
1.56733e-06
1.83941e-06
1.85564e-06
1.78817e-06
2.18506e-06
3.36269e-06
2.41717e-06
1.55578e-06
1.50787e-06
1.577e-06
1.44842e-06
1.17099e-06
8.63055e-07
6.20786e-07
5.68633e-07
6.61004e-07
9.84717e-07
1.32172e-06
1.66734e-06
2.07884e-06
2.55186e-06
3.08153e-06
3.68969e-06
4.43929e-06
5.40624e-06
6.4416e-06
5.45745e-06
4.3662e-06
3.57542e-06
2.97622e-06
2.48191e-06
2.05267e-06
1.68052e-06
1.37238e-06
1.09544e-06
8.15008e-07
1.25064e-08
1.87446e-08
2.32412e-08
2.75688e-08
3.2783e-08
3.91889e-08
4.57548e-08
5.66584e-08
7.02749e-08
7.55843e-08
6.21918e-08
6.1907e-08
5.77174e-08
5.21704e-08
4.70998e-08
4.24531e-08
3.87931e-08
3.59126e-08
3.19508e-08
2.72861e-08
2.34703e-08
2.2202e-08
2.63666e-08
3.10925e-08
3.64718e-08
4.30723e-08
5.28074e-08
7.89813e-08
1.58786e-07
6.28613e-07
3.78387e-07
1.01921e-07
7.23353e-08
5.71501e-08
4.75767e-08
4.14299e-08
3.85102e-08
3.81298e-08
4.06197e-08
5.12947e-08
2.97992e-08
3.86775e-08
4.36397e-08
4.56791e-08
4.92217e-08
5.40468e-08
6.90117e-08
1.36874e-07
4.52189e-07
2.2266e-06
1.43477e-06
2.50839e-07
8.23395e-08
5.75844e-08
5.05353e-08
4.95911e-08
5.62173e-08
6.7719e-08
9.03861e-08
1.3474e-07
4.4728e-08
5.27692e-08
6.06377e-08
6.53741e-08
6.53749e-08
6.6604e-08
9.04275e-08
2.2898e-07
9.03386e-07
4.27361e-06
2.68433e-06
4.01205e-07
9.03536e-08
5.81553e-08
5.50366e-08
5.89248e-08
6.94495e-08
9.39744e-08
1.50531e-07
2.25107e-07
1.28527e-07
8.26906e-08
6.79265e-08
6.66407e-08
6.78059e-08
7.21185e-08
1.02741e-07
3.15501e-07
1.51837e-06
6.62562e-06
4.06118e-06
5.7058e-07
9.60316e-08
5.96113e-08
5.93314e-08
6.66584e-08
8.5501e-08
1.29157e-07
2.35617e-07
3.04488e-07
2.78948e-07
1.45589e-07
8.5478e-08
7.09763e-08
6.79117e-08
7.09333e-08
1.05984e-07
3.96189e-07
2.21006e-06
8.92554e-06
5.3654e-06
7.89652e-07
1.11143e-07
6.27179e-08
6.33204e-08
7.28564e-08
9.5465e-08
1.51004e-07
3.06115e-07
3.75933e-07
4.16029e-07
2.11951e-07
1.09205e-07
8.62803e-08
8.37813e-08
8.94382e-08
1.28917e-07
4.72625e-07
2.78999e-06
1.05226e-05
6.25124e-06
1.00059e-06
1.45335e-07
8.24107e-08
8.01996e-08
8.56957e-08
1.01221e-07
1.4432e-07
3.24933e-07
4.45769e-07
5.57926e-07
3.57932e-07
1.68675e-07
1.90099e-07
2.22102e-07
2.45465e-07
2.77484e-07
6.00387e-07
3.08623e-06
1.0321e-05
6.43793e-06
1.09854e-06
2.59147e-07
2.18418e-07
2.13441e-07
1.95781e-07
1.78693e-07
1.82e-07
3.4396e-07
5.23143e-07
7.23151e-07
5.68824e-07
5.99894e-07
9.75062e-07
1.29287e-06
1.48474e-06
1.62622e-06
2.18506e-06
4.23282e-06
8.14975e-06
5.68709e-06
2.45107e-06
1.51808e-06
1.39258e-06
1.30068e-06
1.08047e-06
8.02576e-07
5.60827e-07
5.22887e-07
6.38146e-07
9.65573e-07
1.2968e-06
1.64021e-06
2.09041e-06
2.62997e-06
3.28742e-06
4.15629e-06
5.40624e-06
7.22275e-06
8.97691e-06
7.68682e-06
5.57521e-06
4.18267e-06
3.28742e-06
2.65136e-06
2.14738e-06
1.73001e-06
1.39401e-06
1.10627e-06
8.17746e-07
1.15429e-08
1.75131e-08
2.19977e-08
2.6295e-08
3.20104e-08
3.87687e-08
4.73433e-08
6.0135e-08
7.55843e-08
4.29999e-08
4.21164e-08
8.01705e-08
7.14117e-08
6.02325e-08
5.12093e-08
4.48005e-08
4.08541e-08
3.79304e-08
3.29613e-08
2.73845e-08
2.23361e-08
2.24466e-08
2.90169e-08
3.60708e-08
4.30871e-08
5.01161e-08
6.18221e-08
1.07292e-07
6.28613e-07
7.43851e-07
6.29979e-07
4.4414e-07
9.35346e-08
7.03188e-08
5.59023e-08
4.63956e-08
4.0731e-08
4.24093e-08
4.74332e-08
5.98781e-08
3.05745e-08
3.26314e-08
3.85002e-08
4.59322e-08
5.34117e-08
5.92714e-08
7.51764e-08
2.39932e-07
2.2266e-06
1.48943e-06
1.32632e-06
1.41327e-06
1.43968e-07
6.72588e-08
5.10401e-08
4.70729e-08
5.54556e-08
7.03672e-08
9.80494e-08
1.42491e-07
3.35182e-08
4.26677e-08
4.95287e-08
5.7157e-08
6.59818e-08
7.5283e-08
1.09244e-07
4.58687e-07
4.27361e-06
2.28459e-06
2.18958e-06
2.50208e-06
2.24629e-07
6.88928e-08
5.24818e-08
5.3913e-08
6.69113e-08
9.44839e-08
1.53356e-07
2.23251e-07
1.11481e-07
7.06599e-08
5.48826e-08
5.60548e-08
6.50284e-08
8.20319e-08
1.51211e-07
7.74768e-07
6.62562e-06
3.10744e-06
3.23737e-06
3.68368e-06
3.26713e-07
7.59092e-08
5.55198e-08
5.8464e-08
7.65715e-08
1.20353e-07
2.28311e-07
2.95113e-07
2.49846e-07
1.29061e-07
6.94646e-08
5.61166e-08
5.99582e-08
7.84701e-08
1.83188e-07
1.12708e-06
8.92554e-06
3.89742e-06
4.42023e-06
4.74161e-06
4.27293e-07
8.42425e-08
5.99921e-08
6.20321e-08
8.03191e-08
1.3301e-07
2.91306e-07
3.60474e-07
3.74482e-07
1.88705e-07
9.01014e-08
6.6886e-08
6.93979e-08
8.95376e-08
2.14688e-07
1.42409e-06
1.05226e-05
4.51041e-06
5.55731e-06
5.28538e-06
5.15514e-07
1.07898e-07
7.8766e-08
7.62079e-08
8.60707e-08
1.25369e-07
3.05738e-07
4.24946e-07
5.01679e-07
3.04933e-07
1.36228e-07
1.40593e-07
1.63974e-07
1.90342e-07
3.13919e-07
1.69876e-06
1.0321e-05
4.86e-06
6.31406e-06
4.94292e-06
5.62795e-07
2.08789e-07
1.86807e-07
1.71963e-07
1.56469e-07
1.60091e-07
3.19269e-07
4.96723e-07
6.49621e-07
4.61506e-07
4.54498e-07
7.51844e-07
9.84488e-07
1.1812e-06
1.67267e-06
3.36269e-06
8.14975e-06
5.2681e-06
6.5842e-06
4.49743e-06
1.95545e-06
1.23821e-06
1.07996e-06
9.15392e-07
6.90395e-07
4.78891e-07
4.64174e-07
6.03746e-07
9.01624e-07
1.21025e-06
1.52898e-06
1.99727e-06
2.59104e-06
3.38268e-06
4.56245e-06
6.4416e-06
8.97691e-06
7.35002e-06
8.64925e-06
6.86369e-06
4.79196e-06
3.51787e-06
2.72207e-06
2.14936e-06
1.69931e-06
1.34921e-06
1.06765e-06
7.88457e-07
1.09192e-08
1.71876e-08
2.24047e-08
2.74345e-08
3.14037e-08
3.52386e-08
4.00459e-08
4.84458e-08
6.21918e-08
4.21164e-08
4.65397e-08
8.75205e-08
7.94534e-08
7.22977e-08
6.82822e-08
6.58456e-08
6.27623e-08
5.67196e-08
4.46746e-08
2.87424e-08
2.02526e-08
2.6413e-08
3.5815e-08
4.30139e-08
4.59776e-08
4.59467e-08
4.70999e-08
6.62001e-08
3.78387e-07
6.29979e-07
4.77899e-07
1.87666e-07
7.25867e-08
6.9402e-08
6.48068e-08
5.93889e-08
5.26506e-08
4.89713e-08
5.36654e-08
7.268e-08
2.74609e-08
3.44245e-08
4.22085e-08
5.01305e-08
5.45243e-08
5.3543e-08
5.43863e-08
1.29742e-07
1.43477e-06
1.32632e-06
1.15824e-06
5.90798e-07
8.50294e-08
6.4578e-08
5.69579e-08
5.16882e-08
5.56392e-08
7.2169e-08
1.0739e-07
1.55918e-07
3.32315e-08
4.16516e-08
4.87185e-08
5.73601e-08
6.48643e-08
6.54004e-08
7.17319e-08
2.36836e-07
2.68433e-06
2.18958e-06
2.19688e-06
1.01726e-06
1.10694e-07
6.41291e-08
5.53589e-08
5.40382e-08
6.64256e-08
9.76992e-08
1.62942e-07
2.30261e-07
1.23552e-07
7.4502e-08
5.36115e-08
5.56993e-08
6.80972e-08
7.66385e-08
9.65726e-08
3.90961e-07
4.06118e-06
3.23737e-06
3.62506e-06
1.53801e-06
1.54502e-07
6.85415e-08
5.65599e-08
5.58494e-08
7.19965e-08
1.17754e-07
2.33201e-07
2.97931e-07
2.54808e-07
1.32889e-07
6.77715e-08
5.24932e-08
6.21199e-08
7.97165e-08
1.23814e-07
5.86035e-07
5.3654e-06
4.42023e-06
5.3094e-06
2.09309e-06
2.1875e-07
8.00025e-08
6.13158e-08
5.6798e-08
6.96167e-08
1.20593e-07
2.90932e-07
3.60995e-07
3.73098e-07
1.90202e-07
8.64311e-08
5.90666e-08
6.52695e-08
8.87233e-08
1.62749e-07
7.81457e-07
6.25124e-06
5.55731e-06
6.88782e-06
2.48166e-06
3.20021e-07
1.16049e-07
8.59867e-08
7.24606e-08
7.35124e-08
1.09721e-07
2.96666e-07
4.25042e-07
4.92621e-07
3.00522e-07
1.24738e-07
1.17764e-07
1.36394e-07
1.63885e-07
2.47917e-07
9.28177e-07
6.43793e-06
6.31406e-06
7.96453e-06
2.44231e-06
4.27302e-07
2.25698e-07
1.96051e-07
1.70469e-07
1.47366e-07
1.50512e-07
3.14209e-07
4.98871e-07
6.3008e-07
4.5006e-07
4.10658e-07
6.56756e-07
8.47066e-07
1.01945e-06
1.35491e-06
2.41717e-06
5.68709e-06
6.5842e-06
7.59084e-06
3.34409e-06
1.68627e-06
1.21052e-06
1.05359e-06
8.85647e-07
6.73769e-07
4.7302e-07
4.69214e-07
6.11348e-07
8.65103e-07
1.14511e-06
1.42969e-06
1.83337e-06
2.34349e-06
3.01388e-06
3.97367e-06
5.45745e-06
7.68682e-06
8.64925e-06
9.14083e-06
6.40532e-06
4.55687e-06
3.42368e-06
2.67953e-06
2.13196e-06
1.69952e-06
1.36175e-06
1.08202e-06
8.02638e-07
1.15666e-08
1.97225e-08
2.99405e-08
3.62575e-08
3.74728e-08
3.8474e-08
3.98253e-08
4.45776e-08
6.1907e-08
8.01705e-08
8.75205e-08
9.27537e-08
9.87268e-08
1.035e-07
1.07418e-07
1.09234e-07
1.06689e-07
9.76086e-08
8.04038e-08
5.53512e-08
2.19467e-08
3.76992e-08
4.98333e-08
5.59034e-08
5.66019e-08
5.2658e-08
4.71548e-08
4.7507e-08
1.01921e-07
4.4414e-07
1.87666e-07
7.45729e-08
7.82969e-08
8.33714e-08
8.64788e-08
8.61394e-08
8.09323e-08
7.26045e-08
6.97423e-08
8.56532e-08
2.81242e-08
4.19407e-08
5.1866e-08
5.88521e-08
6.05691e-08
5.74047e-08
5.13821e-08
5.72238e-08
2.50839e-07
1.41327e-06
5.90798e-07
9.34058e-08
7.07706e-08
7.26863e-08
7.13855e-08
6.7709e-08
6.71874e-08
7.97941e-08
1.17855e-07
1.71041e-07
3.80295e-08
4.68905e-08
5.39068e-08
6.0938e-08
6.49172e-08
6.27194e-08
5.70924e-08
7.2401e-08
4.01205e-07
2.50208e-06
1.01726e-06
1.29069e-07
6.94299e-08
6.83565e-08
6.55313e-08
6.30576e-08
7.12718e-08
1.02862e-07
1.76218e-07
2.43183e-07
1.45596e-07
8.49651e-08
6.08708e-08
5.98873e-08
6.64297e-08
6.76736e-08
6.42892e-08
9.35844e-08
5.7058e-07
3.68368e-06
1.53801e-06
1.88203e-07
7.24972e-08
6.72155e-08
6.37887e-08
6.13535e-08
7.25908e-08
1.18289e-07
2.4535e-07
3.0974e-07
2.67646e-07
1.42313e-07
7.41133e-08
5.73991e-08
6.32041e-08
6.92307e-08
7.12391e-08
1.21279e-07
7.89652e-07
4.74161e-06
2.09309e-06
2.73707e-07
8.2394e-08
6.99307e-08
6.57144e-08
6.09706e-08
6.7307e-08
1.13094e-07
2.96781e-07
3.72992e-07
3.81945e-07
1.99147e-07
9.10445e-08
6.17969e-08
6.71327e-08
7.9529e-08
9.07459e-08
1.66218e-07
1.00059e-06
5.28538e-06
2.48166e-06
3.94819e-07
1.26133e-07
1.01867e-07
9.33954e-08
8.06932e-08
7.37318e-08
1.04471e-07
2.90957e-07
4.39315e-07
4.97679e-07
3.14583e-07
1.27173e-07
1.22284e-07
1.4436e-07
1.73742e-07
2.00281e-07
2.76867e-07
1.09854e-06
4.94292e-06
2.44231e-06
5.14927e-07
2.92356e-07
2.77986e-07
2.56076e-07
2.10705e-07
1.69873e-07
1.63066e-07
3.28954e-07
5.1991e-07
6.30502e-07
4.70052e-07
4.3464e-07
6.86881e-07
9.03687e-07
1.11064e-06
1.30195e-06
1.55578e-06
2.45107e-06
4.49743e-06
3.34409e-06
1.86268e-06
1.5084e-06
1.42051e-06
1.2725e-06
1.03775e-06
7.77959e-07
5.50094e-07
5.15762e-07
6.40803e-07
8.50799e-07
1.11881e-06
1.39218e-06
1.75512e-06
2.20192e-06
2.75471e-06
3.4552e-06
4.3662e-06
5.57521e-06
6.86369e-06
6.40532e-06
4.99038e-06
3.94832e-06
3.18925e-06
2.60276e-06
2.12273e-06
1.72081e-06
1.39396e-06
1.10912e-06
8.24686e-07
1.86183e-08
5.85484e-08
8.49846e-08
9.30622e-08
8.57451e-08
6.87748e-08
4.96819e-08
4.54987e-08
5.77174e-08
7.14117e-08
7.94534e-08
9.87268e-08
1.19547e-07
1.36398e-07
1.48594e-07
1.55254e-07
1.55071e-07
1.4674e-07
1.2998e-07
1.07733e-07
4.10255e-08
6.27803e-08
7.88448e-08
8.51162e-08
8.2e-08
7.22941e-08
5.87752e-08
4.88369e-08
7.23353e-08
9.35346e-08
7.25867e-08
7.82969e-08
9.27847e-08
1.06557e-07
1.16275e-07
1.20673e-07
1.18847e-07
1.11002e-07
1.03818e-07
1.11512e-07
3.99336e-08
5.87023e-08
7.12534e-08
7.77168e-08
7.79296e-08
7.18146e-08
6.10615e-08
5.26764e-08
8.23395e-08
1.43968e-07
8.50294e-08
7.07706e-08
7.91834e-08
8.7179e-08
9.11994e-08
9.13121e-08
9.09292e-08
1.00104e-07
1.3761e-07
1.90385e-07
5.49961e-08
6.04765e-08