/*--------------------------------*- C++ -*----------------------------------*\
  =========                 |
  \\      /  F ield         | OpenFOAM: The Open Source CFD Toolbox
   \\    /   O peration     | Website:  https://openfoam.org
    \\  /    A nd           | Version:  8
     \\/     M anipulation  |
\*---------------------------------------------------------------------------*/
FoamFile
{
    version     2.0;
    format      ascii;
    class       volScalarField;
    location    "1400";
    object      k;
}
// * * * * * * * * * * * * * * * * * * * * * * * * * * * * * * * * * * * * * //

dimensions      [0 2 -2 0 0 0 0];

internalField   nonuniform List<scalar> 
4000
(
3.45138e-05
3.28535e-05
3.03261e-05
2.76308e-05
2.31206e-05
6.78024e-06
4.48818e-06
4.17032e-06
3.92197e-06
3.71829e-06
3.58444e-06
3.72892e-06
5.11587e-06
1.70466e-05
2.22351e-05
2.47417e-05
2.63011e-05
2.76305e-05
2.94673e-05
3.14961e-05
3.70717e-05
3.50041e-05
3.06363e-05
2.50734e-05
2.1284e-05
9.6247e-06
5.70443e-06
6.00832e-06
5.97564e-06
5.78024e-06
5.40923e-06
5.70545e-06
8.67265e-06
1.45224e-05
1.81679e-05
1.98909e-05
2.21003e-05
2.56645e-05
3.03945e-05
3.41314e-05
3.85485e-05
3.70112e-05
3.23954e-05
2.43709e-05
1.99312e-05
1.35989e-05
1.04962e-05
7.48366e-06
7.01516e-06
7.12695e-06
6.62526e-06
6.73064e-06
8.50897e-06
1.16839e-05
1.46138e-05
1.51133e-05
1.77683e-05
2.50672e-05
3.1807e-05
3.56078e-05
3.9327e-05
3.8612e-05
3.50756e-05
2.98114e-05
2.06913e-05
1.89347e-05
1.73198e-05
1.26837e-05
9.1583e-06
7.56292e-06
7.51243e-06
8.20975e-06
1.05013e-05
1.27169e-05
1.49346e-05
1.84095e-05
2.30731e-05
2.84049e-05
3.35687e-05
3.63447e-05
3.99017e-05
4.02043e-05
3.85361e-05
3.55766e-05
3.20126e-05
2.98882e-05
2.74541e-05
2.39423e-05
1.85055e-05
1.68256e-05
1.80315e-05
2.01287e-05
2.20422e-05
2.37709e-05
2.55853e-05
2.77183e-05
3.03064e-05
3.33135e-05
3.60667e-05
3.70386e-05
4.04884e-05
4.19366e-05
4.20434e-05
4.13657e-05
4.01417e-05
3.88602e-05
3.69942e-05
3.43779e-05
3.10954e-05
2.88866e-05
2.9273e-05
3.02522e-05
3.13999e-05
3.25717e-05
3.37498e-05
3.49804e-05
3.62706e-05
3.75359e-05
3.83158e-05
3.76239e-05
4.11765e-05
4.37809e-05
4.54285e-05
4.64865e-05
4.70463e-05
4.68386e-05
4.56631e-05
4.3549e-05
4.06102e-05
3.78541e-05
3.77642e-05
3.83618e-05
3.91491e-05
3.99178e-05
4.0564e-05
4.10193e-05
4.11951e-05
4.10433e-05
4.02568e-05
3.81173e-05
4.2079e-05
4.59344e-05
4.89752e-05
5.1438e-05
5.33368e-05
5.42894e-05
5.3948e-05
5.22895e-05
4.9395e-05
4.60131e-05
4.54604e-05
4.57742e-05
4.62784e-05
4.66829e-05
4.67847e-05
4.64364e-05
4.55936e-05
4.42583e-05
4.21645e-05
3.86577e-05
4.34183e-05
4.88222e-05
5.33453e-05
5.70286e-05
5.99788e-05
6.19557e-05
6.24826e-05
6.13233e-05
5.87245e-05
5.46707e-05
5.35723e-05
5.36023e-05
5.37666e-05
5.36964e-05
5.31633e-05
5.20352e-05
5.03004e-05
4.7933e-05
4.45467e-05
3.95478e-05
4.55145e-05
5.25349e-05
5.85939e-05
6.33426e-05
6.71837e-05
7.00411e-05
7.17497e-05
7.21634e-05
7.12206e-05
6.80388e-05
6.61952e-05
6.54754e-05
6.45972e-05
6.33129e-05
6.15481e-05
5.92613e-05
5.63852e-05
5.27497e-05
4.77795e-05
4.11292e-05
3.28535e-05
3.39232e-05
3.20952e-05
2.86941e-05
2.39961e-05
9.73911e-06
6.24692e-06
5.66404e-06
5.13401e-06
4.90912e-06
4.85125e-06
5.31974e-06
1.09769e-05
1.98315e-05
2.43085e-05
2.6962e-05
2.88337e-05
3.05584e-05
3.24218e-05
3.24432e-05
3.50041e-05
4.1024e-05
3.90552e-05
3.1511e-05
2.56001e-05
1.55472e-05
1.04448e-05
9.41726e-06
9.0934e-06
8.98345e-06
8.86887e-06
9.82476e-06
1.28354e-05
1.90063e-05
2.41061e-05
2.66316e-05
2.80162e-05
3.17447e-05
3.80546e-05
3.54237e-05
3.70112e-05
4.60625e-05
4.7564e-05
3.92492e-05
2.71785e-05
1.88149e-05
1.50786e-05
1.37704e-05
1.30168e-05
1.20183e-05
1.1378e-05
1.15475e-05
1.34031e-05
1.68742e-05
1.9522e-05
2.0791e-05
2.3631e-05
3.26439e-05
4.29113e-05
3.72405e-05
3.8612e-05
4.93338e-05
5.29023e-05
4.70216e-05
2.99726e-05
2.27391e-05
1.84676e-05
1.51916e-05
1.34015e-05
1.30788e-05
1.26851e-05
1.23225e-05
1.39239e-05
1.6671e-05
1.87814e-05
2.09025e-05
2.49453e-05
3.65728e-05
4.78837e-05
3.82975e-05
4.02043e-05
5.15937e-05
5.62937e-05
5.2981e-05
3.84089e-05
3.08736e-05
2.53564e-05
2.012e-05
1.5999e-05
1.49686e-05
1.54364e-05
1.62477e-05
1.82605e-05
2.09364e-05
2.36051e-05
2.63079e-05
3.24409e-05
4.27588e-05
5.02174e-05
3.91258e-05
4.19366e-05
5.26367e-05
5.73991e-05
5.77461e-05
4.88824e-05
4.11356e-05
3.4345e-05
2.77334e-05
2.26869e-05
2.09273e-05
2.14117e-05
2.23866e-05
2.42222e-05
2.68134e-05
2.98631e-05
3.38052e-05
4.04912e-05
4.76239e-05
5.03081e-05
3.97155e-05
4.37809e-05
5.29316e-05
5.67593e-05
5.93407e-05
6.05484e-05
5.58301e-05
4.75874e-05
3.86096e-05
3.18151e-05
2.88367e-05
2.89997e-05
3.01887e-05
3.22301e-05
3.50853e-05
3.90077e-05
4.3783e-05
4.7038e-05
4.92469e-05
4.87115e-05
4.03142e-05
4.59344e-05
5.36537e-05
5.64756e-05
6.03184e-05
6.45158e-05
6.54582e-05
6.32459e-05
5.88883e-05
5.11711e-05
4.56738e-05
4.49171e-05
4.61981e-05
4.8157e-05
5.01409e-05
5.13879e-05
5.135e-05
5.0287e-05
4.90396e-05
4.77827e-05
4.13226e-05
4.88222e-05
5.69274e-05
6.15257e-05
6.63457e-05
7.12212e-05
7.50143e-05
7.53563e-05
7.10142e-05
6.31613e-05
5.41868e-05
5.22741e-05
5.36446e-05
5.56749e-05
5.72775e-05
5.75823e-05
5.63176e-05
5.41827e-05
5.21072e-05
5.00935e-05
4.30902e-05
5.25349e-05
6.05212e-05
6.76728e-05
7.37568e-05
7.92205e-05
8.37465e-05
8.67642e-05
8.78073e-05
8.66952e-05
8.27921e-05
7.98062e-05
7.85975e-05
7.70561e-05
7.48559e-05
7.19453e-05
6.83774e-05
6.42423e-05
5.9464e-05
5.34143e-05
4.57246e-05
3.03261e-05
3.20952e-05
3.05603e-05
2.77105e-05
2.32623e-05
9.6104e-06
7.33317e-06
6.70664e-06
5.92369e-06
5.71587e-06
5.78886e-06
7.01778e-06
1.41093e-05
2.13318e-05
2.54426e-05
2.8111e-05
3.01269e-05
3.19861e-05
3.35516e-05
3.24558e-05
3.06363e-05
3.90552e-05
3.75985e-05
3.10774e-05
2.53492e-05
1.66698e-05
1.31658e-05
1.11913e-05
1.06762e-05
1.10672e-05
1.1064e-05
1.20563e-05
1.53139e-05
2.13516e-05
2.62248e-05
2.88795e-05
3.10415e-05
3.54553e-05
4.10331e-05
3.53951e-05
3.23954e-05
4.7564e-05
5.0928e-05
4.14321e-05
2.8827e-05
2.0601e-05
1.76387e-05
1.65211e-05
1.49913e-05
1.42101e-05
1.35757e-05
1.37906e-05
1.5895e-05
1.94356e-05
2.26731e-05
2.53849e-05
2.97634e-05
3.83959e-05
4.76049e-05
3.7378e-05
3.50756e-05
5.29023e-05
5.68989e-05
4.93639e-05
3.33902e-05
2.44836e-05
1.99252e-05
1.74639e-05
1.64976e-05
1.6298e-05
1.56658e-05
1.50938e-05
1.62391e-05
1.87249e-05
2.08282e-05
2.33468e-05
2.92408e-05
4.27578e-05
5.40745e-05
3.86188e-05
3.85361e-05
5.62937e-05
5.9454e-05
5.3963e-05
3.84337e-05
2.91904e-05
2.35876e-05
1.92064e-05
1.62522e-05
1.54182e-05
1.54609e-05
1.55849e-05
1.69742e-05
1.92361e-05
2.13671e-05
2.38336e-05
3.03743e-05
4.54884e-05
5.77211e-05
3.95878e-05
4.20434e-05
5.73991e-05
5.92721e-05
5.5468e-05
4.30983e-05
3.42614e-05
2.79755e-05
2.23504e-05
1.80019e-05
1.615e-05
1.616e-05
1.6685e-05
1.82453e-05
2.05551e-05
2.29445e-05
2.59954e-05
3.31774e-05
4.6611e-05
5.65373e-05
4.05867e-05
4.54285e-05
5.67593e-05
5.67609e-05
5.35149e-05
4.6686e-05
3.99611e-05
3.38327e-05
2.75601e-05
2.21501e-05
1.92347e-05
1.8763e-05
1.9384e-05
2.1011e-05
2.33433e-05
2.59281e-05
2.92588e-05
3.52731e-05
4.53394e-05
5.26287e-05
4.19372e-05
4.89752e-05
5.64756e-05
5.63e-05
5.2953e-05
5.17918e-05
4.93875e-05
4.56354e-05
3.96292e-05
3.26756e-05
2.75466e-05
2.57902e-05
2.63216e-05
2.82021e-05
3.07426e-05
3.307e-05
3.51562e-05
3.84147e-05
4.52488e-05
5.0504e-05
4.37986e-05
5.33453e-05
6.15257e-05
7.01067e-05
7.99794e-05
8.74645e-05
9.45464e-05
9.57412e-05
8.73417e-05
7.29136e-05
5.89239e-05
5.46864e-05
5.73803e-05
6.2125e-05
6.61018e-05
6.71585e-05
6.51443e-05
6.27387e-05
5.87235e-05
5.47447e-05
4.66272e-05
5.85939e-05
6.76728e-05
7.57327e-05
8.29098e-05
8.98439e-05
9.60958e-05
0.000100607
0.000102518
0.000101397
9.67565e-05
9.25394e-05
9.09382e-05
8.87692e-05
8.56358e-05
8.1515e-05
7.66154e-05
7.13156e-05
6.56116e-05
5.87629e-05
5.02556e-05
2.76308e-05
2.86941e-05
2.77105e-05
2.52962e-05
2.03706e-05
9.11946e-06
8.29863e-06
7.47542e-06
6.63979e-06
6.43917e-06
6.62702e-06
7.98906e-06
1.50068e-05
2.14952e-05
2.53307e-05
2.79207e-05
2.98902e-05
3.16406e-05
3.28005e-05
3.12282e-05
2.50734e-05
3.1511e-05
3.10774e-05
2.73531e-05
2.26161e-05
1.65194e-05
1.39232e-05
1.22401e-05
1.22118e-05
1.31173e-05
1.27715e-05
1.32039e-05
1.63445e-05
2.19539e-05
2.63652e-05
2.91856e-05
3.20076e-05
3.63996e-05
4.05426e-05
3.36824e-05
2.43709e-05
3.92492e-05
4.14321e-05
3.41649e-05
2.55768e-05
2.01818e-05
1.87913e-05
1.71554e-05
1.6051e-05
1.64605e-05
1.5587e-05
1.53319e-05
1.72443e-05
2.08987e-05
2.47378e-05
2.87343e-05
3.42798e-05
4.19325e-05
4.86506e-05
3.59841e-05
2.98114e-05
4.70216e-05
4.93639e-05
4.18815e-05
3.03808e-05
2.38641e-05
2.06545e-05
1.9075e-05
1.85604e-05
1.90224e-05
1.82363e-05
1.71283e-05
1.80972e-05
2.06009e-05
2.36788e-05
2.82756e-05
3.61411e-05
4.7181e-05
5.60139e-05
3.78292e-05
3.55766e-05
5.2981e-05
5.3963e-05
4.72804e-05
3.5209e-05
2.76918e-05
2.32044e-05
1.98658e-05
1.77729e-05
1.76615e-05
1.80736e-05
1.74027e-05
1.83079e-05
2.04966e-05
2.28339e-05
2.64952e-05
3.43572e-05
4.89918e-05
6.04843e-05
3.94905e-05
4.13657e-05
5.77461e-05
5.5468e-05
4.9124e-05
3.85989e-05
3.11125e-05
2.59357e-05
2.14862e-05
1.79589e-05
1.63943e-05
1.65402e-05
1.66967e-05
1.79298e-05
2.016e-05
2.22634e-05
2.51168e-05
3.23655e-05
4.75078e-05
6.05761e-05
4.12186e-05
4.64865e-05
5.93407e-05
5.35149e-05
4.77593e-05
4.05604e-05
3.48066e-05
3.01587e-05
2.55222e-05
2.10577e-05
1.80365e-05
1.71703e-05
1.75215e-05
1.90583e-05
2.13677e-05
2.33233e-05
2.55131e-05
3.13833e-05
4.36884e-05
5.59025e-05
4.33831e-05
5.1438e-05
6.03184e-05
5.2953e-05
5.0454e-05
4.95997e-05
4.90418e-05
4.75436e-05
4.32628e-05
3.6105e-05
2.90378e-05
2.5937e-05
2.67816e-05
2.97503e-05
3.29074e-05
3.4287e-05
3.43568e-05
3.66085e-05
4.39296e-05
5.32492e-05
4.60249e-05
5.70286e-05
6.63457e-05
7.99794e-05
9.01988e-05
0.000103432
0.000117779
0.000124108
0.000118023
0.000101877
8.28705e-05
7.516e-05
7.86308e-05
8.5048e-05
8.89329e-05
8.69936e-05
7.98979e-05
7.29212e-05
6.78726e-05
5.97449e-05
4.98205e-05
6.33426e-05
7.37568e-05
8.29098e-05
9.13348e-05
0.000100194
0.000108588
0.000115066
0.000118771
0.000119207
0.000115638
0.000109246
0.000106143
0.000102482
9.77347e-05
9.18344e-05
8.50417e-05
7.80965e-05
7.13079e-05
6.35118e-05
5.4039e-05
2.31206e-05
2.39961e-05
2.32623e-05
2.03706e-05
1.64079e-05
8.31299e-06
8.99744e-06
8.10268e-06
7.4585e-06
7.34459e-06
7.25343e-06
8.1687e-06
1.42193e-05
2.02493e-05
2.38241e-05
2.62404e-05
2.79928e-05
2.92905e-05
3.00445e-05
2.85858e-05
2.1284e-05
2.56001e-05
2.53492e-05
2.26161e-05
1.91312e-05
1.65237e-05
1.42671e-05
1.29642e-05
1.38015e-05
1.51699e-05
1.37118e-05
1.3554e-05
1.60416e-05
2.08073e-05
2.46268e-05
2.73062e-05
2.98621e-05
3.32637e-05
3.63417e-05
2.98166e-05
1.99312e-05
2.71785e-05
2.8827e-05
2.55768e-05
2.16566e-05
1.9575e-05
1.884e-05
1.69022e-05
1.7263e-05
1.86556e-05
1.68924e-05
1.58745e-05
1.74453e-05
2.07039e-05
2.43826e-05
2.86418e-05
3.44962e-05
4.17036e-05
4.65265e-05
3.27592e-05
2.06913e-05
2.99726e-05
3.33902e-05
3.03808e-05
2.52075e-05
2.22843e-05
2.08128e-05
1.9867e-05
1.97421e-05
2.18354e-05
2.03542e-05
1.82516e-05
1.89141e-05
2.13182e-05
2.48897e-05
3.04571e-05
3.8887e-05
4.90202e-05
5.56665e-05
3.58913e-05
3.20126e-05
3.84089e-05
3.84337e-05
3.5209e-05
2.92708e-05
2.53048e-05
2.26077e-05
2.04463e-05
1.93452e-05
2.09372e-05
2.17376e-05
1.96419e-05
1.99459e-05
2.19637e-05
2.49212e-05
3.00601e-05
3.88361e-05
5.10928e-05
6.12001e-05
3.87426e-05
4.01417e-05
4.88824e-05
4.30983e-05
3.85989e-05
3.27367e-05
2.82388e-05
2.46591e-05
2.14322e-05
1.90322e-05
1.89645e-05
2.04215e-05
1.95734e-05
2.00364e-05
2.20749e-05
2.4369e-05
2.79527e-05
3.52708e-05
4.84922e-05
6.28145e-05
4.14552e-05
4.70463e-05
6.05484e-05
4.6686e-05
4.05604e-05
3.59305e-05
3.2273e-05
2.89284e-05
2.54923e-05
2.21807e-05
2.02682e-05
2.04446e-05
2.05595e-05
2.14417e-05
2.34178e-05
2.51322e-05
2.69693e-05
3.2366e-05
4.35602e-05
5.85989e-05
4.44168e-05
5.33368e-05
6.45158e-05
5.17918e-05
4.95997e-05
5.01977e-05
5.14081e-05
5.10252e-05
4.72191e-05
3.99674e-05
3.24454e-05
2.9262e-05
3.05936e-05
3.43344e-05
3.77615e-05
3.84637e-05
3.72539e-05
3.83765e-05
4.42313e-05
5.56803e-05
4.77728e-05
5.99788e-05
7.12212e-05
8.74645e-05
0.000103432
0.000123941
0.000144158
0.000152581
0.000144251
0.00012247
9.80042e-05
8.84083e-05
9.45736e-05
0.000104563
0.000109438
0.000105287
9.44589e-05
8.33199e-05
7.55984e-05
6.39471e-05
5.2435e-05
6.71837e-05
7.92205e-05
8.98439e-05
0.000100194
0.00011121
0.000121664
0.000130256
0.000136178
0.00013894
0.000137564
0.000128689
0.000123486
0.000117749
0.000110911
0.000102924
9.41197e-05
8.52779e-05
7.70028e-05
6.80005e-05
5.73487e-05
6.78024e-06
9.73911e-06
9.6104e-06
9.11946e-06
8.31299e-06
8.96508e-06
9.17354e-06
8.56339e-06
8.40316e-06
8.34681e-06
7.83451e-06
8.31558e-06
1.2277e-05
1.75668e-05
2.07031e-05
2.29316e-05
2.4514e-05
2.5481e-05
2.56948e-05
2.46598e-05
9.6247e-06
1.55472e-05
1.66698e-05
1.65194e-05
1.65237e-05
1.5231e-05
1.36851e-05
1.34025e-05
1.55947e-05
1.69718e-05
1.40225e-05
1.31551e-05
1.48569e-05
1.82202e-05
2.11869e-05
2.34183e-05
2.50795e-05
2.62297e-05
2.62985e-05
2.26532e-05
1.35989e-05
1.88149e-05
2.0601e-05
2.01818e-05
1.9575e-05
1.9243e-05
1.7831e-05
1.65147e-05
1.87976e-05
2.00761e-05
1.69025e-05
1.55162e-05
1.65513e-05
1.86924e-05
2.09466e-05
2.34014e-05
2.66153e-05
3.07216e-05
3.43274e-05
2.71829e-05
1.89347e-05
2.27391e-05
2.44836e-05
2.38641e-05
2.22843e-05
2.1332e-05
2.06935e-05
1.97986e-05
2.10234e-05
2.38309e-05
2.06413e-05
1.80348e-05
1.823e-05
1.97843e-05
2.1963e-05
2.54766e-05
3.13459e-05
3.97084e-05
4.81949e-05
3.30381e-05
2.98882e-05
3.08736e-05
2.91904e-05
2.76918e-05
2.53048e-05
2.3415e-05
2.19416e-05
2.09139e-05
2.13208e-05
2.47065e-05
2.37584e-05
2.03092e-05
1.98981e-05
2.12334e-05
2.34628e-05
2.76689e-05
3.53073e-05
4.64823e-05
5.83176e-05
3.76422e-05
3.88602e-05
4.11356e-05
3.42614e-05
3.11125e-05
2.82388e-05
2.5705e-05
2.33845e-05
2.14492e-05
2.08614e-05
2.33202e-05
2.45716e-05
2.15817e-05
2.10141e-05
2.24493e-05
2.4513e-05
2.81729e-05
3.53391e-05
4.71006e-05
6.33835e-05
4.13907e-05
4.68386e-05
5.58301e-05
3.99611e-05
3.48066e-05
3.2273e-05
3.01508e-05
2.79368e-05
2.57462e-05
2.4209e-05
2.47546e-05
2.56978e-05
2.3906e-05
2.35077e-05
2.49133e-05
2.64661e-05
2.85272e-05
3.34305e-05
4.35411e-05
6.09754e-05
4.50566e-05
5.42894e-05
6.54582e-05
4.93875e-05
4.90418e-05
5.14081e-05
5.39189e-05
5.40578e-05
4.99592e-05
4.25442e-05
3.59368e-05
3.35036e-05
3.49229e-05
3.91137e-05
4.21831e-05
4.23246e-05
4.05782e-05
4.09712e-05
4.55302e-05
5.76035e-05
4.89521e-05
6.19557e-05
7.50143e-05
9.45464e-05
0.000117779
0.000144158
0.000166617
0.000173426
0.000158574
0.000131273
0.00010628
9.73557e-05
0.000107186
0.000122224
0.000128892
0.000122689
0.000107438
9.17066e-05
8.01288e-05
6.6395e-05
5.4273e-05
7.00411e-05
8.37465e-05
9.60958e-05
0.000108588
0.000121664
0.000134259
0.000145381
0.000154429
0.000161228
0.000164326
0.000152201
0.000143384
0.000134407
0.000124711
0.000114191
0.000103127
9.22672e-05
8.23282e-05
7.20263e-05
6.01359e-05
4.48818e-06
6.24692e-06
7.33317e-06
8.29863e-06
8.99744e-06
9.17354e-06
8.86309e-06
8.73274e-06
9.31228e-06
9.53577e-06
8.53347e-06
8.50679e-06
9.85849e-06
1.25024e-05
1.349e-05
1.45745e-05
1.64772e-05
1.81824e-05
1.85271e-05
1.6428e-05
5.70443e-06
1.04448e-05
1.31658e-05
1.39232e-05
1.42671e-05
1.36851e-05
1.32451e-05
1.39454e-05
1.75511e-05
1.89711e-05
1.4428e-05
1.2681e-05
1.3447e-05
1.46066e-05
1.57842e-05
1.69802e-05
1.82078e-05
1.859e-05
1.71434e-05
1.32779e-05
1.04962e-05
1.50786e-05
1.76387e-05
1.87913e-05
1.884e-05
1.7831e-05
1.64876e-05
1.69246e-05
2.12466e-05
2.17523e-05
1.67858e-05
1.47037e-05
1.52061e-05
1.62301e-05
1.70009e-05
1.76694e-05
1.84836e-05
1.95781e-05
2.12223e-05
2.13077e-05
1.73198e-05
1.84676e-05
1.99252e-05
2.06545e-05
2.08128e-05
2.06935e-05
1.99656e-05
2.00826e-05
2.47858e-05
2.69953e-05
2.08222e-05
1.71059e-05
1.67448e-05
1.74779e-05
1.82293e-05
1.92607e-05
2.14339e-05
2.56784e-05
3.23753e-05
2.98078e-05
2.74541e-05
2.53564e-05
2.35876e-05
2.32044e-05
2.26077e-05
2.19416e-05
2.15101e-05
2.20864e-05
2.64017e-05
3.20588e-05
2.5441e-05
1.96591e-05
1.847e-05
1.90213e-05
2.0072e-05
2.21223e-05
2.66297e-05
3.52081e-05
4.89059e-05
3.599e-05
3.69942e-05
3.4345e-05
2.79755e-05
2.59357e-05
2.46591e-05
2.33845e-05
2.23342e-05
2.25498e-05
2.66368e-05
3.49587e-05
2.94891e-05
2.1915e-05
2.01285e-05
2.07493e-05
2.20907e-05
2.46757e-05
3.03003e-05
4.11034e-05
6.01629e-05
4.08054e-05
4.56631e-05
4.75874e-05
3.38327e-05
3.01587e-05
2.89284e-05
2.79368e-05
2.70069e-05
2.69357e-05
3.02281e-05
3.83298e-05
3.42493e-05
2.58087e-05
2.37484e-05
2.43492e-05
2.54792e-05
2.73178e-05
3.1661e-05
4.083e-05
6.1218e-05
4.50971e-05
5.3948e-05
6.32459e-05
4.56354e-05
4.75436e-05
5.10252e-05
5.40578e-05
5.40302e-05
5.0128e-05
4.60639e-05
4.73954e-05
4.21542e-05
3.79567e-05
4.12696e-05
4.39876e-05
4.37558e-05
4.19393e-05
4.18544e-05
4.53196e-05
5.77418e-05
4.94301e-05
6.24826e-05
7.53563e-05
9.57412e-05
0.000124108
0.000152581
0.000173426
0.000174164
0.000154985
0.00013492
0.000128221
0.000113783
0.00011601
0.000133151
0.000141435
0.000134265
0.000116773
9.74173e-05
8.1655e-05
6.68778e-05
5.53241e-05
7.17497e-05
8.67642e-05
0.000100607
0.000115066
0.000130256
0.000145381
0.000159918
0.000174127
0.000188498
0.000200592
0.000183007
0.000166764
0.000152216
0.000138441
0.000124846
0.000111386
9.85236e-05
8.69398e-05
7.53684e-05
6.23304e-05
4.17032e-06
5.66404e-06
6.70664e-06
7.47542e-06
8.10268e-06
8.56339e-06
8.73274e-06
9.28733e-06
1.07279e-05
1.11795e-05
9.68821e-06
9.16813e-06
9.29524e-06
9.316e-06
9.14799e-06
9.14819e-06
8.93937e-06
8.66509e-06
8.21909e-06
7.40197e-06
6.00832e-06
9.41726e-06
1.11913e-05
1.22401e-05
1.29642e-05
1.34025e-05
1.39454e-05
1.59261e-05
2.13827e-05
2.35223e-05
1.67724e-05
1.34562e-05
1.30667e-05
1.30797e-05
1.26422e-05
1.22139e-05
1.19141e-05
1.11241e-05
9.99342e-06
9.77744e-06
7.48366e-06
1.37704e-05
1.65211e-05
1.71554e-05
1.69022e-05
1.65147e-05
1.69246e-05
2.00981e-05
2.894e-05
3.47904e-05
2.35058e-05
1.57043e-05
1.47612e-05
1.51047e-05
1.52304e-05
1.47911e-05
1.4243e-05
1.45499e-05
1.65858e-05
1.97449e-05
1.26837e-05
1.51916e-05
1.74639e-05
1.9075e-05
1.9867e-05
1.97986e-05
2.00826e-05
2.45991e-05
3.88754e-05
5.16592e-05
3.34964e-05
1.86576e-05
1.61786e-05
1.62552e-05
1.64753e-05
1.66036e-05
1.73687e-05
1.9939e-05
2.56232e-05
2.80818e-05
2.39423e-05
2.012e-05
1.92064e-05
1.98658e-05
2.04463e-05
2.09139e-05
2.20864e-05
2.78633e-05
4.74673e-05
7.35451e-05
4.64951e-05
2.22358e-05
1.77541e-05
1.75133e-05
1.80436e-05
1.92188e-05
2.20004e-05
2.81421e-05
4.00984e-05
3.44124e-05
3.43779e-05
2.77334e-05
2.23504e-05
2.14862e-05
2.14322e-05
2.14492e-05
2.25498e-05
2.90197e-05
5.41145e-05
9.59261e-05
6.17487e-05
2.63298e-05
1.95812e-05
1.91536e-05
1.9962e-05
2.18531e-05
2.60865e-05
3.51852e-05
5.40201e-05
3.95662e-05
4.3549e-05
3.86096e-05
2.75601e-05
2.55222e-05
2.54923e-05
2.57462e-05
2.69357e-05
3.33227e-05
6.08743e-05
0.000114443
7.69981e-05
3.26261e-05
2.39757e-05
2.33075e-05
2.39499e-05
2.54199e-05
2.89167e-05
3.68843e-05
5.79344e-05
4.42145e-05
5.22895e-05
5.88883e-05
3.96292e-05
4.32628e-05
4.72191e-05
4.99592e-05
5.0128e-05
5.12942e-05
7.24444e-05
0.000131042
8.95639e-05
4.42296e-05
4.06846e-05
4.28053e-05
4.28123e-05
4.12656e-05
4.07751e-05
4.30926e-05
5.56095e-05
4.89708e-05
6.13233e-05
7.10142e-05
8.73417e-05
0.000118023
0.000144251
0.000158574
0.000154985
0.000145353
0.000161507
0.00020846
0.000168091
0.00012652
0.000129876
0.00013952
0.000135224
0.000118932
9.83693e-05
7.97535e-05
6.50892e-05
5.54211e-05
7.21634e-05
8.78073e-05
0.000102518
0.000118771
0.000136178
0.000154429
0.000174127
0.000196956
0.000224581
0.000252453
0.000226119
0.000194913
0.000170633
0.000151013
0.000133807
0.000117911
0.000103203
9.01775e-05
7.76034e-05
6.37245e-05
3.92197e-06
5.13401e-06
5.92369e-06
6.63979e-06
7.4585e-06
8.40316e-06
9.31228e-06
1.07279e-05
1.23714e-05
1.30109e-05
1.14375e-05
1.1405e-05
1.08875e-05
1.0177e-05
9.50111e-06
8.85702e-06
8.33674e-06
7.91734e-06
7.31839e-06
6.58333e-06
5.97564e-06
9.0934e-06
1.06762e-05
1.22118e-05
1.38015e-05
1.55947e-05
1.75511e-05
2.13827e-05
2.97869e-05
6.14997e-05
4.48626e-05
2.1795e-05
1.87339e-05
1.62184e-05
1.40962e-05
1.24862e-05
1.14794e-05
1.0943e-05
1.03065e-05
1.00588e-05
7.01516e-06
1.30168e-05
1.49913e-05
1.6051e-05
1.7263e-05
1.87976e-05
2.12466e-05
2.894e-05
5.41404e-05
0.000140586
0.00010289
3.40574e-05
2.03267e-05
1.70763e-05
1.5207e-05
1.41666e-05
1.41025e-05
1.45209e-05
1.61693e-05
1.91946e-05
9.1583e-06
1.34015e-05
1.64976e-05
1.85604e-05
1.97421e-05
2.10234e-05
2.47858e-05
3.88754e-05
8.54721e-05
0.000226786
0.000161128
4.51075e-05
2.12647e-05
1.73843e-05
1.60597e-05
1.56091e-05
1.59966e-05
1.80985e-05
2.33726e-05
2.70198e-05
1.85055e-05
1.5999e-05
1.62522e-05
1.77729e-05
1.93452e-05
2.13208e-05
2.64017e-05
4.74673e-05
0.000122785
0.00031657
0.00022023
5.72703e-05
2.23713e-05
1.81164e-05
1.73456e-05
1.7612e-05
1.9514e-05
2.46438e-05
3.60948e-05
3.30448e-05
3.10954e-05
2.26869e-05
1.80019e-05
1.79589e-05
1.90322e-05
2.08614e-05
2.66368e-05
5.41145e-05
0.000160606
0.00039936
0.000274738
7.21407e-05
2.46381e-05
1.94732e-05
1.90999e-05
2.00648e-05
2.31094e-05
3.09096e-05
4.93825e-05
3.803e-05
4.06102e-05
3.18151e-05
2.21501e-05
2.10577e-05
2.21807e-05
2.4209e-05
3.02281e-05
6.08743e-05
0.000191341
0.000457589
0.000314528
8.7404e-05
2.99248e-05
2.37611e-05
2.32993e-05
2.40153e-05
2.64654e-05
3.32177e-05
5.40544e-05
4.26077e-05
4.9395e-05
5.11711e-05
3.26756e-05
3.6105e-05
3.99674e-05
4.25442e-05
4.60639e-05
7.24444e-05
0.000211504
0.000462453
0.000333538
9.81662e-05
4.2376e-05
3.97098e-05
3.99857e-05
3.89886e-05
3.83071e-05
3.97079e-05
5.23849e-05
4.74113e-05
5.87245e-05
6.31613e-05
7.29136e-05
0.000101877
0.00012247
0.000131273
0.00013492
0.000161507
0.000258633
0.000396979
0.000313493
0.000171321
0.000124778
0.000123691
0.000122987
0.000111159
9.26506e-05
7.3637e-05
6.10516e-05
5.41352e-05
7.12206e-05
8.66952e-05
0.000101397
0.000119207
0.00013894
0.000161228
0.000188498
0.000224581
0.0002724
0.000315028
0.000284111
0.000229396
0.000189428
0.000161347
0.000139815
0.000121497
0.000105208
9.11127e-05
7.81084e-05
6.38667e-05
3.71829e-06
4.90912e-06
5.71587e-06
6.43917e-06
7.34459e-06
8.34681e-06
9.53577e-06
1.11795e-05
1.30109e-05
1.33964e-05
1.31279e-05
1.35393e-05
1.2529e-05
1.11856e-05
1.00423e-05
9.19378e-06
8.64698e-06
8.22329e-06
7.475e-06
6.60183e-06
5.78024e-06
8.98345e-06
1.10672e-05
1.31173e-05
1.51699e-05
1.69718e-05
1.89711e-05
2.35223e-05
6.14997e-05
5.64329e-05
5.32918e-05
5.15559e-05
2.16267e-05
1.88848e-05
1.59664e-05
1.36547e-05
1.20594e-05
1.16957e-05
1.12232e-05
1.11221e-05
7.12695e-06
1.20183e-05
1.42101e-05
1.64605e-05
1.86556e-05
2.00761e-05
2.17523e-05
3.47904e-05
0.000140586
9.56569e-05
9.2399e-05
0.000105233
2.67626e-05
1.9619e-05
1.61158e-05
1.41766e-05
1.42146e-05
1.50839e-05
1.72173e-05
1.98898e-05
7.56292e-06
1.30788e-05
1.6298e-05
1.90224e-05
2.18354e-05
2.38309e-05
2.69953e-05
5.16592e-05
0.000226786
0.000134608
0.000135511
0.000156313
3.31982e-05
2.01249e-05
1.66098e-05
1.53438e-05
1.59906e-05
1.85265e-05
2.40373e-05
2.68521e-05
1.68256e-05
1.49686e-05
1.54182e-05
1.76615e-05
2.09372e-05
2.47065e-05
3.20588e-05
7.35451e-05
0.00031657
0.000173652
0.000183875
0.000207325
4.07983e-05
2.1457e-05
1.78051e-05
1.68707e-05
1.85102e-05
2.38047e-05
3.5757e-05
3.23521e-05
2.88866e-05
2.09273e-05
1.615e-05
1.63943e-05
1.89645e-05
2.33202e-05
3.49587e-05
9.59261e-05
0.00039936
0.000211248
0.000235941
0.000251679
4.81472e-05
2.30448e-05
1.94927e-05
1.87786e-05
2.0892e-05
2.84583e-05
4.79723e-05
3.69742e-05
3.78541e-05
2.88367e-05
1.92347e-05
1.80365e-05
2.02682e-05
2.47546e-05
3.83298e-05
0.000114443
0.000457589
0.000242525
0.000285675
0.000277762
5.60564e-05
2.73978e-05
2.37838e-05
2.28081e-05
2.40267e-05
3.02449e-05
5.17666e-05
4.12644e-05
4.60131e-05
4.56738e-05
2.75466e-05
2.90378e-05
3.24454e-05
3.59368e-05
4.73954e-05
0.000131042
0.000462453
0.000264264
0.00032202
0.000274056
6.26795e-05
3.86088e-05
3.71587e-05
3.60593e-05
3.51081e-05
3.63675e-05
4.98297e-05
4.57921e-05
5.46707e-05
5.41868e-05
5.89239e-05
8.28705e-05
9.80042e-05
0.00010628
0.000128221
0.00020846
0.000396979
0.000286896
0.000339195
0.000263378
0.000142783
0.000109395
0.000106048
9.8232e-05
8.30378e-05
6.57401e-05
5.61041e-05
5.2155e-05
6.80388e-05
8.27921e-05
9.67565e-05
0.000115638
0.000137564
0.000164326
0.000200592
0.000252453
0.000315028
0.000276051
0.000307214
0.000263482
0.000207376
0.000168764
0.000142251
0.000121535
0.000103925
8.91195e-05
7.6255e-05
6.2313e-05
3.58444e-06
4.85125e-06
5.78886e-06
6.62702e-06
7.25343e-06
7.83451e-06
8.53347e-06
9.68821e-06
1.14375e-05
1.31279e-05
1.45249e-05
1.43803e-05
1.3489e-05
1.2684e-05
1.22311e-05
1.19525e-05
1.15798e-05
1.08144e-05
9.20132e-06
6.8232e-06
5.40923e-06
8.86887e-06
1.1064e-05
1.27715e-05
1.37118e-05
1.40225e-05
1.4428e-05
1.67724e-05
4.48626e-05
5.32918e-05
4.81417e-05
3.09799e-05
1.76784e-05
1.70221e-05
1.58727e-05
1.45411e-05
1.29797e-05
1.18826e-05
1.17327e-05
1.26448e-05
6.62526e-06
1.1378e-05
1.35757e-05
1.5587e-05
1.68924e-05
1.69025e-05
1.67858e-05
2.35058e-05
0.00010289
9.2399e-05
8.84801e-05
6.08783e-05
2.07782e-05
1.83846e-05
1.64134e-05
1.45311e-05
1.40198e-05
1.52444e-05
1.83667e-05
2.11033e-05
7.51243e-06
1.26851e-05
1.56658e-05
1.82363e-05
2.03542e-05
2.06413e-05
2.08222e-05
3.34964e-05
0.000161128
0.000135511
0.000139516
8.686e-05
2.44125e-05
1.96227e-05
1.71723e-05
1.55433e-05
1.61288e-05
1.93074e-05
2.56409e-05
2.73976e-05
1.80315e-05
1.54364e-05
1.54609e-05
1.80736e-05
2.17376e-05
2.37584e-05
2.5441e-05
4.64951e-05
0.00022023
0.000183875
0.000201465
0.000116164
2.95257e-05
2.15644e-05
1.86035e-05
1.69255e-05
1.81921e-05
2.4013e-05
3.72595e-05
3.25487e-05
2.9273e-05
2.14117e-05
1.616e-05
1.65402e-05
2.04215e-05
2.45716e-05
2.94891e-05
6.17487e-05
0.000274738
0.000235941
0.00026941
0.00014673
3.66037e-05
2.46684e-05
2.09636e-05
1.86814e-05
1.95865e-05
2.71288e-05
4.87967e-05
3.70036e-05
3.77642e-05
2.89997e-05
1.8763e-05
1.71703e-05
2.04446e-05
2.56978e-05
3.42493e-05
7.69981e-05
0.000314528
0.000285675
0.000332262
0.000170594
4.7524e-05
3.09546e-05
2.63448e-05
2.30452e-05
2.23384e-05
2.80986e-05
5.04344e-05
4.12646e-05
4.54604e-05
4.49171e-05
2.57902e-05
2.5937e-05
2.9262e-05
3.35036e-05
4.21542e-05
8.95639e-05
0.000333538
0.00032202
0.00037904
0.000175727
5.7859e-05
4.24734e-05
3.95131e-05
3.6451e-05
3.39395e-05
3.49082e-05
4.89084e-05
4.59152e-05
5.35723e-05
5.22741e-05
5.46864e-05
7.516e-05
8.84083e-05
9.73557e-05
0.000113783
0.000168091
0.000313493
0.000339195
0.000375177
0.00021493
0.00013301
0.000110735
0.000105744
9.67512e-05
8.18397e-05
6.50846e-05
5.59896e-05
5.25784e-05
6.61952e-05
7.98062e-05
9.25394e-05
0.000109246
0.000128689
0.000152201
0.000183007
0.000226119
0.000284111
0.000307214
0.000318942
0.000251674
0.000200554
0.000165734
0.000140749
0.000120858
0.000103912
8.96503e-05
7.6922e-05
6.30475e-05
3.72892e-06
5.31974e-06
7.01778e-06
7.98906e-06
8.1687e-06
8.31558e-06
8.50679e-06
9.16813e-06
1.1405e-05
1.35393e-05
1.43803e-05
1.49686e-05
1.56242e-05
1.61437e-05
1.65657e-05
1.6763e-05
1.65066e-05
1.5556e-05
1.36652e-05
1.06415e-05
5.70545e-06
9.82476e-06
1.20563e-05
1.32039e-05
1.3554e-05
1.31551e-05
1.2681e-05
1.34562e-05
2.1795e-05
5.15559e-05
3.09799e-05
1.72035e-05
1.71565e-05
1.75268e-05
1.77066e-05
1.73597e-05
1.62395e-05
1.46089e-05
1.3575e-05
1.4117e-05
6.73064e-06
1.15475e-05
1.37906e-05
1.53319e-05
1.58745e-05
1.55162e-05
1.47037e-05
1.57043e-05
3.40574e-05
0.000105233
6.08783e-05
2.10887e-05
1.85286e-05
1.84267e-05
1.7742e-05
1.64859e-05
1.54851e-05
1.61998e-05
1.963e-05
2.24422e-05
8.20975e-06
1.23225e-05
1.50938e-05
1.71283e-05
1.82516e-05
1.80348e-05
1.71059e-05
1.86576e-05
4.51075e-05
0.000156313
8.686e-05
2.57301e-05
2.00649e-05
1.95643e-05
1.83822e-05
1.69485e-05
1.7011e-05
2.03272e-05
2.77333e-05
2.84057e-05
2.01287e-05
1.62477e-05
1.55849e-05
1.74027e-05
1.96419e-05
2.03092e-05
1.96591e-05
2.22358e-05
5.72703e-05
0.000207325
0.000116164
3.20327e-05
2.18716e-05
2.10081e-05
1.96306e-05
1.80553e-05
1.86562e-05
2.46856e-05
3.97959e-05
3.33968e-05
3.02522e-05
2.23866e-05
1.6685e-05
1.66967e-05
1.95734e-05
2.15817e-05
2.1915e-05
2.63298e-05
7.21407e-05
0.000251679
0.00014673
4.06061e-05
2.45666e-05
2.3115e-05
2.17406e-05
1.98285e-05
1.97441e-05
2.66859e-05
5.06258e-05
3.78135e-05
3.83618e-05
3.01887e-05
1.9384e-05
1.75215e-05
2.05595e-05
2.3906e-05
2.58087e-05
3.26261e-05
8.7404e-05
0.000277762
0.000170594
5.35771e-05
3.21083e-05
2.95441e-05
2.79033e-05
2.50935e-05
2.30377e-05
2.77322e-05
4.95239e-05
4.21772e-05
4.57742e-05
4.61981e-05
2.63216e-05
2.67816e-05
3.05936e-05
3.49229e-05
3.79567e-05
4.42296e-05
9.81662e-05
0.000274056
0.000175727
6.6135e-05
4.99258e-05
4.93147e-05
4.7377e-05
4.22218e-05
3.72864e-05
3.67244e-05
5.01882e-05
4.71882e-05
5.36023e-05
5.36446e-05
5.73803e-05
7.86308e-05
9.45736e-05
0.000107186
0.00011601
0.00012652
0.000171321
0.000263378
0.00021493
0.000144493
0.000129697
0.000129851
0.000124343
0.000110153
9.14278e-05
7.25591e-05
6.01085e-05
5.42428e-05
6.54754e-05
7.85975e-05
9.09382e-05
0.000106143
0.000123486
0.000143384
0.000166764
0.000194913
0.000229396
0.000263482
0.000251674
0.000213086
0.000182265
0.000158071
0.00013804
0.0001205
0.000104771
9.10518e-05
7.81953e-05
6.41932e-05
5.11587e-06
1.09769e-05
1.41093e-05
1.50068e-05
1.42193e-05
1.2277e-05
9.85849e-06
9.29524e-06
1.08875e-05
1.2529e-05
1.3489e-05
1.56242e-05
1.77663e-05
1.94121e-05
2.05627e-05
2.11799e-05
2.11688e-05
2.04082e-05
1.88258e-05
1.66097e-05
8.67265e-06
1.28354e-05
1.53139e-05
1.63445e-05
1.60416e-05
1.48569e-05
1.3447e-05
1.30667e-05
1.87339e-05
2.16267e-05
1.76784e-05
1.71565e-05
1.85352e-05
2.02658e-05
2.15429e-05
2.19812e-05
2.13441e-05
1.96595e-05
1.77927e-05
1.68628e-05
8.50897e-06
1.34031e-05
1.5895e-05
1.72443e-05
1.74453e-05
1.65513e-05
1.52061e-05
1.47612e-05
2.03267e-05
2.67626e-05
2.07782e-05
1.85286e-05
1.91194e-05
2.00406e-05
2.04474e-05
2.00118e-05
1.91032e-05
1.91547e-05
2.21352e-05
2.41086e-05
1.05013e-05
1.39239e-05
1.62391e-05
1.80972e-05
1.89141e-05
1.823e-05
1.67448e-05