/*--------------------------------*- C++ -*----------------------------------*\
  =========                 |
  \\      /  F ield         | OpenFOAM: The Open Source CFD Toolbox
   \\    /   O peration     | Website:  https://openfoam.org
    \\  /    A nd           | Version:  8
     \\/     M anipulation  |
\*---------------------------------------------------------------------------*/
FoamFile
{
    version     2.0;
    format      ascii;
    class       volScalarField;
    location    "1400";
    object      nut;
}
// * * * * * * * * * * * * * * * * * * * * * * * * * * * * * * * * * * * * * //

dimensions      [0 2 -1 0 0 0 0];

internalField   nonuniform List<scalar> 
4000
(
0.000329225
0.000321173
0.000308529
0.000294483
0.000269204
0.000144986
0.000118342
0.000114165
0.000110692
0.000107799
0.0001059
0.000108194
0.000126514
0.000230804
0.000264267
0.000278805
0.00028748
0.000294629
0.000304301
0.000314664
0.00034122
0.000331517
0.000310067
0.000280534
0.00025832
0.000173697
0.00013359
0.000137367
0.000136928
0.000134625
0.000130027
0.000133491
0.000165003
0.000213652
0.000238921
0.000249906
0.000263347
0.000283637
0.000308917
0.000327522
0.000347963
0.000340898
0.00031883
0.00027628
0.000249963
0.000206651
0.000181257
0.000152759
0.000148632
0.000149517
0.000143858
0.000144969
0.000163177
0.000191607
0.000214351
0.00021791
0.000235235
0.000279909
0.000315918
0.000334498
0.000351472
0.000348208
0.000331781
0.000305681
0.000254747
0.00024337
0.000232171
0.000198235
0.000168769
0.000153582
0.000152846
0.000159508
0.000180467
0.0001989
0.000215646
0.000239352
0.000268373
0.00029817
0.000324521
0.000337915
0.000354046
0.000355339
0.000347807
0.000334066
0.000316786
0.000305881
0.000292863
0.00027312
0.000239801
0.000228549
0.000236841
0.000250453
0.000262308
0.000272513
0.000282791
0.000294428
0.000308001
0.000323113
0.000336424
0.000341115
0.000356656
0.000362943
0.000363345
0.000360316
0.000354838
0.000348984
0.000340345
0.000327988
0.000311968
0.000300582
0.000302666
0.000307748
0.000313573
0.000319397
0.000325138
0.00033104
0.000337154
0.000343094
0.000346783
0.000343797
0.000359691
0.000370868
0.00037774
0.000382047
0.000384242
0.000383277
0.00037833
0.000369408
0.000356771
0.000344379
0.000344018
0.000346769
0.000350333
0.000353769
0.000356624
0.000358632
0.000359434
0.000358834
0.000355479
0.000346048
0.00036363
0.000379907
0.000392248
0.000401936
0.000409201
0.000412732
0.00041134
0.000404899
0.000393579
0.000379823
0.00037757
0.000378909
0.000381012
0.000382681
0.000383102
0.000381674
0.00037821
0.000372676
0.000363833
0.000348508
0.000369392
0.000391696
0.000409417
0.000423276
0.000434017
0.000441007
0.00044276
0.00043857
0.000429193
0.000414088
0.000409947
0.000410132
0.000410804
0.00041055
0.000408497
0.000404127
0.000397335
0.000387904
0.000374021
0.000352536
0.000378228
0.000406359
0.000429141
0.000446163
0.000459439
0.000469034
0.000474644
0.000475953
0.000472791
0.000462094
0.000455856
0.000453494
0.000450531
0.000446075
0.000439824
0.000431564
0.000420944
0.000407139
0.000387492
0.000359574
0.000321173
0.000326383
0.000317441
0.000300095
0.000274264
0.000174062
0.000139788
0.00013294
0.000126555
0.000123847
0.000123235
0.00012914
0.000185219
0.000249628
0.000276369
0.000291065
0.000300994
0.000309841
0.000319194
0.000319369
0.000331517
0.000460274
0.000480998
0.000420924
0.000342887
0.000257422
0.000266328
0.000304483
0.0003352
0.000323578
0.000268016
0.000230438
0.000236176
0.000285836
0.000341787
0.000380728
0.000396492
0.0004129
0.000435661
0.000333695
0.000340898
0.000519649
0.000576473
0.000522278
0.000394642
0.000314883
0.00029258
0.000313239
0.000394266
0.000398374
0.000338461
0.000286144
0.000275421
0.000295334
0.000325463
0.000351664
0.000376508
0.000440721
0.000499504
0.00034213
0.000348208
0.000551789
0.000626678
0.000586107
0.000429792
0.000355958
0.000311929
0.000288008
0.000306317
0.000360812
0.000347697
0.000291443
0.00028852
0.000307906
0.000326182
0.000343003
0.0003692
0.00047564
0.000551976
0.000346935
0.000355339
0.000569779
0.000656973
0.000631176
0.00048451
0.00040889
0.000354076
0.000304979
0.000278596
0.000285386
0.000287851
0.000279633
0.000292825
0.000318577
0.000342873
0.000364717
0.000422906
0.000526455
0.000573777
0.000350652
0.000362943
0.000575927
0.000670762
0.000684369
0.000579861
0.000500436
0.000434386
0.000366794
0.000318174
0.000305403
0.000310495
0.000316937
0.000333821
0.000359903
0.000390402
0.000430626
0.000506244
0.00057944
0.00057667
0.000353259
0.000370868
0.000572671
0.000667129
0.000721852
0.000734313
0.000688971
0.00060977
0.000508733
0.000429808
0.000396599
0.000397938
0.000411868
0.000436208
0.000469942
0.00051575
0.000572274
0.000605386
0.000611372
0.000560773
0.000355903
0.000379907
0.000559859
0.000639507
0.000714343
0.00076622
0.000774643
0.000756537
0.000719319
0.000658403
0.000615705
0.000604212
0.000610597
0.000627082
0.000647488
0.000662366
0.000662226
0.000642677
0.000599217
0.000531582
0.000360354
0.000391696
0.000523307
0.000590781
0.000651978
0.000698701
0.000723699
0.000721705
0.000687796
0.000631199
0.000572601
0.000546442
0.000550996
0.000569484
0.00058955
0.000600329
0.000594858
0.000572444
0.000536709
0.000491787
0.000368032
0.000406359
0.000436157
0.000461202
0.000481465
0.000498929
0.000512892
0.000521951
0.000525008
0.000521628
0.000509735
0.000500574
0.00049694
0.000492158
0.000485132
0.000475607
0.000463638
0.000449381
0.000432351
0.000409806
0.000379266
0.000308529
0.000317441
0.00030969
0.000294828
0.000269927
0.000172663
0.000151816
0.000144618
0.000135884
0.000133669
0.000134614
0.000148041
0.000210821
0.00025904
0.000282794
0.000297228
0.000307683
0.000317022
0.000324744
0.000319465
0.000310067
0.000480998
0.000510104
0.000435375
0.000351272
0.000279424
0.000300082
0.00034233
0.000389067
0.000379899
0.000307612
0.000262515
0.000267697
0.000322152
0.000386321
0.000437148
0.000465336
0.000484414
0.000486961
0.000333617
0.00031883
0.000576473
0.000665995
0.000587687
0.00043919
0.000356667
0.000351943
0.000385429
0.000463491
0.000472037
0.000392976
0.000330007
0.000319121
0.00034697
0.000398166
0.000451287
0.000496163
0.000553111
0.000579802
0.00034283
0.000331781
0.000626678
0.000735609
0.000685511
0.000518144
0.000421353
0.000378074
0.000366735
0.000403964
0.000482672
0.000453372
0.000380364
0.000357623
0.000371829
0.000401524
0.000439233
0.000492368
0.00061233
0.000658677
0.000348463
0.000347807
0.000656973
0.00077147
0.00073999
0.000576236
0.000469929
0.000404969
0.00035964
0.000349969
0.000389828
0.000401286
0.000359121
0.000352933
0.000372883
0.000396644
0.000421722
0.000487239
0.000646417
0.000704632
0.000352795
0.000363345
0.000670762
0.000788488
0.000778231
0.000634293
0.000526899
0.000451892
0.000385525
0.000341212
0.000337926
0.000346801
0.000338064
0.000346372
0.000371655
0.000398703
0.000432051
0.000517921
0.000669501
0.000705063
0.000357212
0.00037774
0.000667129
0.000787615
0.000806243
0.000717188
0.0006312
0.000558494
0.000476917
0.000404344
0.000369559
0.000366585
0.000371427
0.00039044
0.000421529
0.000455363
0.000498907
0.000577534
0.000681538
0.000664206
0.0003631
0.000392248
0.000639507
0.000775296
0.000865778
0.000839909
0.000797856
0.000745839
0.000666575
0.00056969
0.000501317
0.000479904
0.000490314
0.000520996
0.000561716
0.000598039
0.000629585
0.00066972
0.000678428
0.000611458
0.000371088
0.000409417
0.000590781
0.000749345
0.000900011
0.000994108
0.00101122
0.000993068
0.000916563
0.000797599
0.000687533
0.000655421
0.000681772
0.000730389
0.000777686
0.000805197
0.00081003
0.000774293
0.000678294
0.000564824
0.000382943
0.000429141
0.000461202
0.000487901
0.000510489
0.000531366
0.000549446
0.000562079
0.000567307
0.000564144
0.000551064
0.00053908
0.000534614
0.000528337
0.000518982
0.000506329
0.00049084
0.000473549
0.000454247
0.00042995
0.000397732
0.000294483
0.000300095
0.000294828
0.000281543
0.000252149
0.000168506
0.00016188
0.000152766
0.000143924
0.000141915
0.000144073
0.000158429
0.000217793
0.000260123
0.000282208
0.000296245
0.000306504
0.000315367
0.000321169
0.000313447
0.000280534
0.000420924
0.000435375
0.000384255
0.000323338
0.000283801
0.000312301
0.000360447
0.000431667
0.000429318
0.000341285
0.000280678
0.000282471
0.000334597
0.000396717
0.000452549
0.00049565
0.000513569
0.000497816
0.0003256
0.00027628
0.000522278
0.000587687
0.000515469
0.000406456
0.000360425
0.000381381
0.000416419
0.000507609
0.000530901
0.000436177
0.000359478
0.000344366
0.000378639
0.00044395
0.000515964
0.000576767
0.000620456
0.000610804
0.000336547
0.000305681
0.000586107
0.000685511
0.000632825
0.000502426
0.000434637
0.000415944
0.000423555
0.000474256
0.000569774
0.000521804
0.000433293
0.000402629
0.000420653
0.000472052
0.000542713
0.000622869
0.00070607
0.00070751
0.000345044
0.000334066
0.000631176
0.00073999
0.000712353
0.000583934
0.000498247
0.000450283
0.000420418
0.000426601
0.000500827
0.000527816
0.000455138
0.000429061
0.000444441
0.000478376
0.00052833
0.00061114
0.000750083
0.000772367
0.000352516
0.000360316
0.000684369
0.000778231
0.000761955
0.000647861
0.000555886
0.000492294
0.00043962
0.000408966
0.000431059
0.000469049
0.000437118
0.000425446
0.000445738
0.00047228
0.000507908
0.000594741
0.000762223
0.000792042
0.000360138
0.000382047
0.000721852
0.000806243
0.000800796
0.000717023
0.000640458
0.000580911
0.000520016
0.000462544
0.000437737
0.000449215
0.000447116
0.000453802
0.000479915
0.000503784
0.000532288
0.00061214
0.000750179
0.000746186
0.000369481
0.000401936
0.000714343
0.000865778
0.000885804
0.000850575
0.000808861
0.000766501
0.000704306
0.00061716
0.000539766
0.000514128
0.000527897
0.000565125
0.000609581
0.00063735
0.000656006
0.000703708
0.000751713
0.000677254
0.000380583
0.000423276
0.000651978
0.000900011
0.0010305
0.00108496
0.00112846
0.00113839
0.00108048
0.000958002
0.000822081
0.000774127
0.000810115
0.000873011
0.000922185
0.0009314
0.000907179
0.000884598
0.000802635
0.000627442
0.000396019
0.000446163
0.000481465
0.000510489
0.000535804
0.000561156
0.000584108
0.000601184
0.000610724
0.000611808
0.000602569
0.000585876
0.000577728
0.000567816
0.00055456
0.000537542
0.000517243
0.000495674
0.000473702
0.000447137
0.000412562
0.000269204
0.000274264
0.000269927
0.000252149
0.000225671
0.000161113
0.000168637
0.00015945
0.000152721
0.000151665
0.000150782
0.000160263
0.000212222
0.000252496
0.000273635
0.000287137
0.000296596
0.000303442
0.000307442
0.00029998
0.00025832
0.000342887
0.000351272
0.000323338
0.000288758
0.000290555
0.000319334
0.000371989
0.000470043
0.000480687
0.000368034
0.000292111
0.00028244
0.000321743
0.000370395
0.000416635
0.000458111
0.000483279
0.000464885
0.000306613
0.000249963
0.000394642
0.00043919
0.000406456
0.000358559
0.000357678
0.000391435
0.000429591
0.000544902
0.000586442
0.000471014
0.000374446
0.000351478
0.000377812
0.000434581
0.000503801
0.000571665
0.000618629
0.000594787
0.000321416
0.000254747
0.000429792
0.000518144
0.000502426
0.0004426
0.000423576
0.000435376
0.000461923
0.00053656
0.000650338
0.000574837
0.000461833
0.000422602
0.000437712
0.000492293
0.000572773
0.000663316
0.000735712
0.000713512
0.000336322
0.000316786
0.00048451
0.000576236
0.000583934
0.000525523
0.0004889
0.000472482
0.000466493
0.00049673
0.000606704
0.000624506
0.000522695
0.000479035
0.000488223
0.000530216
0.000601638
0.000699159
0.000803864
0.000802903
0.000349335
0.000354838
0.000579861
0.000634293
0.000647861
0.000598532
0.00055245
0.000517021
0.000486922
0.000480039
0.000539855
0.00060421
0.000545546
0.000509015
0.000519721
0.000549074
0.000598887
0.000689441
0.000829492
0.0008523
0.000361321
0.000384242
0.000734313
0.000717188
0.000717023
0.000682101
0.000642179
0.000604056
0.000563357
0.0005285
0.000532752
0.000576354
0.000566673
0.000549244
0.000563735
0.000584498
0.000612524
0.000689374
0.000819121
0.000814358
0.000374015
0.000409201
0.00076622
0.000839909
0.000850575
0.00083402
0.000808388
0.000776787
0.000724634
0.000647294
0.000577795
0.000565009
0.000583524
0.000620395
0.000664849
0.000690466
0.000706255
0.000754829
0.000816325
0.000728756
0.000387921
0.000434017
0.000698701
0.000994108
0.00108496
0.0011656
0.00123995
0.00126329
0.00119488
0.00104412
0.000878054
0.000830446
0.000890767
0.000979009
0.0010366
0.00103461
0.000989939
0.000949551
0.000887379
0.00067136
0.000406469
0.000459439
0.000498929
0.000531366
0.000561156
0.000591181
0.000618284
0.000639681
0.00065403
0.000660607
0.000657322
0.00063601
0.000623268
0.00060877
0.000590892
0.000569222
0.000544325
0.000518155
0.000492446
0.000462844
0.000425147
0.000144986
0.000174062
0.000172663
0.000168506
0.000161113
0.000168774
0.000170079
0.000164116
0.000162168
0.000161734
0.000156764
0.000161756
0.000197242
0.000234981
0.000254382
0.00026789
0.000277325
0.000282885
0.000284217
0.000278573
0.000173697
0.000257422
0.000279424
0.000283801
0.000290555
0.000305047
0.000338857
0.000400335
0.00050816
0.000517272
0.000385158
0.000295776
0.000274787
0.000291665
0.000319265
0.000346139
0.000369215
0.000380202
0.000359713
0.000267575
0.000206651
0.000314883
0.000356667
0.000360425
0.000357678
0.000379393
0.00040488
0.00045524
0.000588408
0.000612007
0.000480221
0.000377457
0.000343317
0.000346486
0.000369965
0.000403949
0.000441655
0.00046848
0.000456354
0.000293156
0.00024337
0.000355958
0.000421353
0.000434637
0.000423576
0.000432596
0.000456988
0.000494295
0.000597241
0.00067893
0.000586324
0.000466728
0.000416055
0.000410826
0.000433203
0.000478119
0.000539587
0.000600917
0.000616791
0.000322851
0.000305881
0.00040889
0.000469929
0.000498247
0.0004889
0.000484185
0.000489813
0.000507986
0.000567287
0.0006697
0.000662873
0.000548539
0.000487944
0.000479002
0.000500318
0.000552842
0.000637275
0.000733239
0.000765471
0.000344447
0.000348984
0.000500436
0.000526899
0.000555886
0.00055245
0.000540513
0.000529552
0.000525896
0.000552177
0.00062374
0.00068165
0.000605504
0.000546942
0.000540568
0.000559019
0.000606061
0.000694579
0.000815282
0.000872702
0.000361128
0.000383277
0.000688971
0.0006312
0.000640458
0.000642179
0.000630904
0.000612538
0.000593963
0.000589756
0.000615952
0.000669879
0.000646744
0.000606168
0.000607584
0.000623629
0.000654871
0.000727129
0.000849067
0.000862344
0.000376792
0.000412732
0.000774643
0.000797856
0.000808861
0.000808388
0.000799535
0.000777629
0.000731245
0.000663643
0.000610641
0.000616432
0.000631769
0.000661579
0.000699865
0.000723216
0.000744525
0.000796506
0.000858924
0.000763295
0.000392807
0.000441007
0.000723699
0.00101122
0.00112846
0.00123995
0.00133106
0.00133861
0.00123035
0.00104459
0.000860642
0.000836761
0.000930988
0.00105299
0.0011234
0.00111512
0.00105385
0.000995521
0.000939632
0.000692781
0.000413694
0.000469034
0.000512892
0.000549446
0.000584108
0.000618284
0.00064948
0.000675824
0.000696523
0.00071165
0.000718445
0.000691752
0.00067169
0.000650498
0.000626689
0.000599709
0.000569947
0.00053916
0.000509378
0.000476516
0.000435488
0.000118342
0.000139788
0.000151816
0.00016188
0.000168637
0.000170079
0.000167171
0.000165607
0.000170576
0.00017286
0.000163658
0.000163537
0.000176062
0.00019677
0.000203181
0.00021129
0.000225439
0.000237808
0.000240723
0.000227005
0.00013359
0.000266328
0.000300082
0.000312301
0.000319334
0.000338857
0.000375536
0.000436664
0.000524999
0.00052394
0.000397771
0.000306918
0.000276887
0.000265107
0.000268165
0.000276815
0.000285378
0.000285279
0.000263662
0.000205185
0.000181257
0.00029258
0.000351943
0.000381381
0.000391435
0.00040488
0.000431943
0.000498057
0.000588705
0.000566461
0.000466272
0.000378692
0.000340807
0.000325212
0.000319955
0.000321034
0.000324135
0.000324571
0.000314244
0.000260591
0.000232171
0.000311929
0.000378074
0.000415944
0.000435376
0.000456988
0.000483909
0.000536814
0.000611429
0.000600374
0.000543979
0.000461271
0.000406629
0.00038427
0.000375633
0.000377247
0.000389314
0.000410426
0.000428692
0.000306946
0.000292863
0.000354076
0.000404969
0.000450283
0.000472482
0.000489813
0.000514824
0.000559128
0.000610608
0.000611718
0.000603192
0.000541045
0.000477666
0.000451211
0.000444458
0.000456604
0.000495636
0.000565205
0.000642835
0.000336957
0.000340345
0.000434386
0.000451892
0.000492294
0.000517021
0.000529552
0.000543487
0.000573682
0.000602514
0.00060042
0.000632115
0.000606744
0.000547818
0.000524262
0.000522625
0.000544326
0.000605299
0.000713221
0.000831566
0.000358635
0.00037833
0.00060977
0.000558494
0.000580911
0.000604056
0.000612538
0.000615461
0.000627623
0.000637901
0.000615897
0.000648675
0.000660616
0.000619785
0.000608527
0.000614747
0.000637073
0.000696011
0.000803792
0.000871729
0.000377017
0.00041134
0.000756537
0.000745839
0.000766501
0.000776787
0.000777629
0.000761622
0.000726106
0.000688217
0.000644016
0.000645087
0.00064741
0.00066732
0.000700025
0.000722038
0.000744189
0.0007985
0.000857347
0.000766993
0.000394797
0.00044276
0.000721705
0.000993068
0.00113839
0.00126329
0.00133861
0.0013048
0.00116501
0.00100743
0.000884604
0.00085998
0.000930338
0.00107018
0.00115647
0.00115458
0.00109053
0.00101752
0.000947684
0.000690849
0.000417793
0.000474644
0.000521951
0.000562079
0.000601184
0.000639681
0.000675824
0.000708812
0.000739579
0.000769393
0.000793731
0.000758555
0.000724393
0.000692272
0.000660324
0.000627147
0.000592455
0.00055729
0.000523605
0.00048758
0.000443466
0.000114165
0.00013294
0.000144618
0.000152766
0.00015945
0.000164116
0.000165607
0.000170441
0.000182812
0.00018705
0.00017437
0.000169702
0.000170909
0.000170631
0.000169146
0.000168772
0.00016655
0.000163756
0.000159546
0.000151642
0.000137367
0.000304483
0.00034233
0.000360447
0.000371989
0.000400335
0.000436664
0.000472728
0.000521006
0.000464127
0.000382448
0.00034303
0.00031465
0.000294124
0.000281645
0.000277147
0.00026784
0.000250225
0.00022
0.000176095
0.000152759
0.000313239
0.000385429
0.000416419
0.000429591
0.00045524
0.000498057
0.000533002
0.000550704
0.000454018
0.000383278
0.000387882
0.00037228
0.000353984
0.000340471
0.000325104
0.000300487
0.000276357
0.000265111
0.000250359
0.000198235
0.000288008
0.000366735
0.000423555
0.000461923
0.000494295
0.000536814
0.000573771
0.000594012
0.000523627
0.000426373
0.000432724
0.000425583
0.000401568
0.000381233
0.000359877
0.00034025
0.000334654
0.000350758
0.00029787
0.00027312
0.000304979
0.00035964
0.000420418
0.000466493
0.000507986
0.000559128
0.000601713
0.000642734
0.000628316
0.000497649
0.000475493
0.000482096
0.000453403
0.000433501
0.000422502
0.000427923
0.000465935
0.000539724
0.000329494
0.000327988
0.000366794
0.000385525
0.00043962
0.000486922
0.000525896
0.000573682
0.000609427
0.000665225
0.000734786
0.000585564
0.000514461
0.000542634
0.000519161
0.000505136
0.000507604
0.000539835
0.000624385
0.000763402
0.000353192
0.000369408
0.000508733
0.000476917
0.000520016
0.000563357
0.000593963
0.000627623
0.00065593
0.000705658
0.000827716
0.000682807
0.000576363
0.000613339
0.000603091
0.00060177
0.000614167
0.000653431
0.00073922
0.000843023
0.000373366
0.000404899
0.000719319
0.000666575
0.000704306
0.000724634
0.000731245
0.000726106
0.000731755
0.00078672
0.000909772
0.000777818
0.000635913
0.00064994
0.000677325
0.000700755
0.000724408
0.000772678
0.000823255
0.000744415
0.000393012
0.00043857
0.000687796
0.000916563
0.00108048
0.00119488
0.00123035
0.00116501
0.00106336
0.00107439
0.00116306
0.00105202
0.00092601
0.00100679
0.00111092
0.0011362
0.00108714
0.00100907
0.000922147
0.000670546
0.000418204
0.000475953
0.000525008
0.000567307
0.000610724
0.00065403
0.000696523
0.000739579
0.00078644
0.000839643
0.000890452
0.000843191
0.000783107
0.000732898
0.000689616
0.000649258
0.000609582
0.000570404
0.00053329
0.000494782
0.000448428
0.000110692
0.000126555
0.000135884
0.000143924
0.000152721
0.000162168
0.000170576
0.000182812
0.000196011
0.000201569
0.000189308
0.0001891
0.000184838
0.000178673
0.000172493
0.000166306
0.000161243
0.000157092
0.000150866
0.000142953
0.000136928
0.0003352
0.000389067
0.000431667
0.000470043
0.00050816
0.000524999
0.000521006
0.0005029
0.000541508
0.000478714
0.000419461
0.000436665
0.00041423
0.000375881
0.000338681
0.000307965
0.000282651
0.000235357
0.000177527
0.000148632
0.000394266
0.000463491
0.000507609
0.000544902
0.000588408
0.000588705
0.000550704
0.000583399
0.000798888
0.000664063
0.000416169
0.000451614
0.00045575
0.000411847
0.000364227
0.000318392
0.000280234
0.000260329
0.000246096
0.000168769
0.000306317
0.000403964
0.000474256
0.00053656
0.000597241
0.000611429
0.000594012
0.00072781
0.00108313
0.000870459
0.000456429
0.000450416
0.000467702
0.000421762
0.000372132
0.000331612
0.000313703
0.000326611
0.000291889
0.000239801
0.000278596
0.000349969
0.000426601
0.00049673
0.000567287
0.000610608
0.000642734
0.000893625
0.0013613
0.00107484
0.00051735
0.000469042
0.000495516
0.000456389
0.000418799
0.000400832
0.000423194
0.000497651
0.000322758
0.000311968
0.000318174
0.000341212
0.000408966
0.000480039
0.000552177
0.000602514
0.000665225
0.00105041
0.00160818
0.00126613
0.000593154
0.000491556
0.000544156
0.000518512
0.000497331
0.000503472
0.000569429
0.000716976
0.000346246
0.000356771
0.000429808
0.000404344
0.000462544
0.0005285
0.000589756
0.000637901
0.000705658
0.00118102
0.00179089
0.00142428
0.000687148
0.000554541
0.000616582
0.000609193
0.000605704
0.000622776
0.000688104
0.000809302
0.000366529
0.000393579
0.000658403
0.00056969
0.00061716
0.000647294
0.000663643
0.000688217
0.00078672
0.00130452
0.0018649
0.0015552
0.000789499
0.000623642
0.000649754
0.000674179
0.000698789
0.000739082
0.000779695
0.000718037
0.000386711
0.000429193
0.000631199
0.000797599
0.000958002
0.00104412
0.00104459
0.00100743
0.00107439
0.00142227
0.00174033
0.00155527
0.00107773
0.000923044
0.000988781
0.00104662
0.00102924
0.000962617
0.000870174
0.000641547
0.000413316
0.000472791
0.000521628
0.000564144
0.000611808
0.000660607
0.00071165
0.000769393
0.000839643
0.000924598
0.000994981
0.000945089
0.000849483
0.000772103
0.000712707
0.000663561
0.000618679
0.00057582
0.000535961
0.000496337
0.000448925
0.000107799
0.000123847
0.000133669
0.000141915
0.000151665
0.000161734
0.00017286
0.00018705
0.000201569
0.000375622
0.000368282
0.000205789
0.000197836
0.000186953
0.00017724
0.000169804
0.000164716
0.000160452
0.000152567
0.000143241
0.000134625
0.000323578
0.000379899
0.000429318
0.000480687
0.000517272
0.00052394
0.000464127
0.000541508
0.00038532
0.000405731
0.000538616
0.000450041
0.000456454
0.000410417
0.000361687
0.000321341
0.000290289
0.000238998
0.000185928
0.000149517
0.000398374
0.000472037
0.000530901
0.000586442
0.000612007
0.000566461
0.000454018
0.000798888
0.000552912
0.000579332
0.000705221
0.00044775
0.000515045
0.000457968
0.000384253
0.000327919
0.000291003
0.0002721
0.000249871
0.000153582
0.000360812
0.000482672
0.000569774
0.000650338
0.00067893
0.000600374
0.000523627
0.00108313
0.000713796
0.000754799
0.000878888
0.000441575
0.000529096
0.000473113
0.000393018
0.000343933
0.000326944
0.000339089
0.000290673
0.000228549
0.000285386
0.000389828
0.000500827
0.000606704
0.0006697
0.000611718
0.000628316
0.0013613
0.000873374
0.000939934
0.00105018
0.000458521
0.000545864
0.000513905
0.000438148
0.000402717
0.000423753
0.000504008
0.000319198
0.000300582
0.000305403
0.000337926
0.000431059
0.000539855
0.00062374
0.00060042
0.000734786
0.00160818
0.00103051
0.00113346
0.00120229
0.000488269
0.00056736
0.000570025
0.000511627
0.000489084
0.000547996
0.000711007
0.000341322
0.000344379
0.000396599
0.000369559
0.000437737
0.000532752
0.000615952
0.000615897
0.000827716
0.00179089
0.00117365
0.00132167
0.00131375
0.000548596
0.000626124
0.000646346
0.000614358
0.000603635
0.000656685
0.000788847
0.000360628
0.000379823
0.000615705
0.000501317
0.000539766
0.000577795
0.000610641
0.000644016
0.000909772
0.0018649
0.00129325
0.00147809
0.00136753
0.000628265
0.000642552
0.000665227
0.00068052
0.000708972
0.000743537
0.00069994
0.000379935
0.000414088
0.000572601
0.000687533
0.000822081
0.000878054
0.000860642
0.000884604
0.00116306
0.00174033
0.00140617
0.00157268
0.00138815
0.000938314
0.000869849
0.000937216
0.000948728
0.00089887
0.000812208
0.000610312
0.00040549
0.000462094
0.000509735
0.000551064
0.000602569
0.000657322
0.000718445
0.000793731
0.000890452
0.000994981
0.000933112
0.000982077
0.000910302
0.00080769
0.000728659
0.000669039
0.000618494
0.000572021
0.000529794
0.000490172
0.000443222
0.0001059
0.000123235
0.000134614
0.000144073
0.000150782
0.000156764
0.000163658
0.00017437
0.000189308
0.000368282
0.000407984
0.000212653
0.000206105
0.000200275
0.000197183
0.000195271
0.000192285
0.000185572
0.000170562
0.000145779
0.000130027
0.000268016
0.000307612
0.000341285
0.000368034
0.000385158
0.000397771
0.000382448
0.000478714
0.000405731
0.000436465
0.000460274
0.000387499
0.000375748
0.000349882
0.000320427
0.000287982
0.000259492
0.000230858
0.000197993
0.000143858
0.000338461
0.000392976
0.000436177
0.000471014
0.000480221
0.000466272
0.000383278
0.000664063
0.000579332
0.000608324
0.000564583
0.000456969
0.000471049
0.000425681
0.000367659
0.000317939
0.000289808
0.00028271
0.000257068
0.000152846
0.000347697
0.000453372
0.000521804
0.000574837
0.000586324
0.000543979
0.000426373
0.000870459
0.000754799
0.000797413
0.000667497
0.000484556
0.000540388
0.000479415
0.000402375
0.000352459
0.000343398
0.000363142
0.000293392
0.000236841
0.000287851
0.000401286
0.000527816
0.000624506
0.000662873
0.000603192
0.000497649
0.00107484
0.000939934
0.00100769
0.000789638
0.000507819
0.000610609
0.000550707
0.000461643
0.00041371
0.000440714
0.000535778
0.000320033
0.000302666
0.000310495
0.000346801
0.000469049
0.00060421
0.00068165
0.000632115
0.000585564
0.00126613
0.00113346
0.00123034
0.000925751
0.000551245
0.000684574
0.000645065
0.000553007
0.000495955
0.000549266
0.0007366
0.000341373
0.000344018
0.000397938
0.000366585
0.000449215
0.000576354
0.000669879
0.000648675
0.000682807
0.00142428
0.00132167
0.00144252
0.00105543
0.000635169
0.000743106
0.00072644
0.000659631
0.000610921
0.000647625
0.000771664
0.00036055
0.00037757
0.000604212
0.000479904
0.000514128
0.000565009
0.000616432
0.000645087
0.000777818
0.0015552
0.00147809
0.0016235
0.00113793
0.000705097
0.000719362
0.00071673
0.00070148
0.000703486
0.00072866
0.000685157
0.000380336
0.000409947
0.000546442
0.000655421
0.000774127
0.000830446
0.000836761
0.00085998
0.00105202
0.00155527
0.00157268
0.00166888
0.00124325
0.000944237
0.000911679
0.000955174
0.000951249
0.000894662
0.000805971
0.000601293
0.000406976
0.000455856
0.000500574
0.00053908
0.000585876
0.00063601
0.000691752
0.000758555
0.000843191
0.000945089
0.000982077
0.00100156
0.000889974
0.000794398
0.000722056
0.000665386
0.000616614
0.000571809
0.00053119
0.000492164
0.000445716
0.000108194
0.00012914
0.000148041
0.000158429
0.000160263
0.000161756
0.000163537
0.000169702
0.0001891
0.000205789
0.000212653
0.000217408
0.000222539
0.000226624
0.000229926
0.00023152
0.000229845
0.000223126
0.000209024
0.000184128
0.000133491
0.000230438
0.000262515
0.000280678
0.000292111
0.000295776
0.000306918
0.00034303
0.000419461
0.000538616
0.000460274
0.000357188
0.00033834
0.000331614
0.00032629
0.000314867
0.000293268
0.000264553
0.000237808
0.000209403
0.000144969
0.000286144
0.000330007
0.000359478
0.000374446
0.000377457
0.000378692
0.000387882
0.000416169
0.000705221
0.000564583
0.000428515
0.000436593
0.000420422
0.000396861
0.000361259
0.000321205
0.000296001
0.000294264
0.000265017
0.000159508
0.000291443
0.000380364
0.000433293
0.000461833
0.000466728
0.000461271
0.000432724
0.000456429
0.000878888
0.000667497
0.000461641
0.000521881
0.000503955
0.000464075
0.000409984
0.000365415
0.000361529
0.000392822
0.000298621
0.000250453
0.000279633
0.000359121
0.000455138
0.000522695
0.000548539
0.000541045
0.000475493
0.00051735
0.00105018
0.000789638
0.000490684
0.000593857
0.000590943
0.000543706
0.000478203
0.000431528
0.000463643
0.000580943
0.000324083
0.000307748
0.000316937
0.000338064
0.000437118
0.000545546
0.000605504
0.000606744
0.000514461
0.000593154
0.00120229
0.000925751
0.000542175
0.000659228
0.00068764
0.000647326
0.000580364
0.00052126
0.000566721
0.000777231
0.000345014
0.000346769
0.000411868
0.000371427
0.000447116
0.000566673
0.000646744
0.000660616
0.000576363
0.000687148
0.00131375
0.00105543
0.000654338
0.000735609
0.000771172
0.000750287
0.00070231
0.00064784
0.000662547
0.000758654
0.000364437
0.000378909
0.000610597
0.000490314
0.000527897
0.000583524
0.000631769
0.00064741
0.000635913
0.000789499
0.00136753
0.00113793
0.000764467
0.000767327
0.000787358
0.000788876
0.00076145
0.000736578
0.000744369
0.000689144
0.000385461
0.000410132
0.000550996
0.000681772
0.000810115
0.000890767
0.000930988
0.000930338
0.00092601
0.00107773
0.00138815
0.00124325
0.00100879
0.00100367
0.00106829
0.00109352
0.00105231
0.000967036
0.000861368
0.000630471
0.00041324
0.000453494
0.00049694
0.000534614
0.000577728
0.000623268
0.00067169
0.000724393
0.000783107
0.000849483
0.000910302
0.000889974
0.000818877
0.00075725
0.000705112
0.000658894
0.000615638
0.000574099
0.000535265
0.000496166
0.00044971
0.000126514
0.000185219
0.000210821
0.000217793
0.000212222
0.000197242
0.000176062
0.000170909
0.000184838
0.000197836
0.000206105
0.000222539
0.000237629
0.000248644
0.000256096
0.000260045
0.000260079
0.000255448
0.000245399
0.000230473
0.000165003
0.000236176
0.000267697
0.000282471
0.00028244
0.000274787
0.000276887
0.00031465
0.000436665
0.000450041
0.000387499
0.00033834
0.000333242
0.000346887
0.000359224
0.000360358
0.000344991
0.000313369
0.000274443
0.0002295
0.000163177
0.000275421
0.000319121
0.000344366
0.000351478
0.000343317
0.000340807
0.00037228
0.000451614
0.00044775
0.000456969
0.000436593
0.000415487
0.00041462
0.000412599
0.000394717
0.000361203
0.000329871
0.000320448
0.00027476
0.000180467
0.00028852
0.000357623
0.000402629
0.000422602
0.000416055
0.000406629
0.000425583
0.000450416
0.000441575
0.000484556
0.000521881
0.000498392
0.000484677
0.00046962
0.00043882