/*--------------------------------*- C++ -*----------------------------------*\
  =========                 |
  \\      /  F ield         | OpenFOAM: The Open Source CFD Toolbox
   \\    /   O peration     | Website:  https://openfoam.org
    \\  /    A nd           | Version:  8
     \\/     M anipulation  |
\*---------------------------------------------------------------------------*/
FoamFile
{
    version     2.0;
    format      ascii;
    class       surfaceScalarField;
    location    "1400";
    object      phi;
}
// * * * * * * * * * * * * * * * * * * * * * * * * * * * * * * * * * * * * * //

dimensions      [1 0 -1 0 0 0 0];

internalField   nonuniform List<scalar> 
11200
(
0.00334993
-0.00668198
0.00334993
0.00504352
-0.00465888
0.00296528
0.00519162
-0.00252053
0.00237243
0.00347504
-0.000144818
0.00186139
-5.34902e-05
0.00211168
0.00141683
-0.00114298
0.000407571
0.000681905
-0.000699314
-0.00030953
-0.000134133
-0.000395977
-0.00014835
-0.000154995
-7.12877e-05
-0.000132325
-0.000192373
0.00024711
-8.9523e-05
-0.000228886
0.000499147
-8.273e-05
-0.000169318
0.0008655
-0.000229603
-0.000136756
0.000274269
-2.04106e-05
0.000611634
-0.00232038
0.00170942
0.000885213
-0.00469441
0.00158747
0.000786556
-0.0063175
0.000856504
0.000766575
-0.00696885
-0.000237194
0.000888538
-0.00647294
-0.00160682
0.0011109
-0.0044513
-0.00336422
0.00134257
-0.00600027
0.00154896
0.00158926
-0.00986051
0.00158926
0.00248122
-0.00714216
0.00159132
0.00271258
-0.00403311
0.0012812
0.00181246
-0.000104374
0.000859671
0.000452059
0.00258448
0.000887591
-0.000504274
0.000802575
0.000561334
-0.000839639
2.97913e-05
-3.95398e-06
-0.000667805
0.000125281
-0.000445465
-0.000425799
0.000173793
-0.000548127
-0.000199951
0.0001764
-0.000491775
-0.000121331
0.000122904
-0.00028426
-0.000296005
-4.77353e-05
-7.19687e-06
-0.00058549
0.000129316
0.000139756
-0.000765549
0.00133313
0.000556345
-0.00158902
0.00187641
0.000534522
-0.00253527
0.00134519
0.000457557
-0.00323086
-0.000151767
0.000610159
-0.00303886
-0.00274081
0.00094198
-0.00198837
-0.0055553
0.0011406
-0.00926729
0.00127865
0.000662538
-0.0111856
0.000662538
0.000808045
-0.00829513
0.00100746
0.000733337
-0.00497176
0.00101335
0.00114391
-0.00140086
0.000885907
0.00137789
0.00157752
0.000772975
0.00106289
0.000484784
0.000632791
0.000324229
0.000222621
0.000545826
-0.00028477
0.000561804
0.000172473
-0.000366844
0.000635399
-0.000379534
-0.000194274
0.000504974
-0.000501148
-0.000201958
0.000436932
-0.000306348
-0.00049286
0.000316608
-7.34423e-05
-0.00067113
0.000249951
5.76327e-05
-0.000336586
0.0006584
0.000340179
-0.000161695
0.00117073
0.000530781
0.000140422
0.000465588
0.000577482
0.000253448
-0.00119847
0.000933663
-0.000156194
-0.0035986
0.00126743
-0.000210874
-0.0067511
0.00125048
-0.0106781
0.0011999
0.00017254
-0.0115307
0.00017254
-0.000179112
-0.00874423
0.000800736
-0.000484048
-0.00572848
0.00106166
0.000153791
-0.0032221
0.00118339
0.00120631
-0.000782231
0.00130723
0.00128079
-0.000869279
0.00127957
0.000935469
-0.000620723
0.00118865
0.000506079
4.87732e-05
0.000942403
0.000185373
0.000489099
0.000466994
0.000199763
0.000441329
4.92465e-05
0.000281355
0.000278555
7.67747e-05
0.000191699
7.22969e-05
0.000333953
0.000136796
-0.000164834
0.000469674
0.000511954
-0.000349707
0.00063293
0.00132629
-0.000507717
0.000864099
0.00191905
-0.00130708
0.00117988
0.0019217
-0.00266768
0.00146656
0.00146702
-0.00462386
0.00147993
0.000743684
-0.00742117
0.0013934
-0.0111113
0.00117692
-0.000117684
-0.0112953
-0.000117684
-0.000752252
-0.0088237
0.00071404
-0.00117773
-0.00636712
0.00106411
-0.00126994
-0.00446264
0.00133274
-0.000607609
-0.00303366
0.0015891
-0.000360533
-0.00261488
0.00149852
-0.000226128
-0.00217703
0.00142189
6.81155e-05
-0.00157166
0.00132618
0.000353098
-0.000956584
0.00116069
0.0006248
-0.000792656
0.000962268
0.00101441
-0.00105094
0.000939874
0.00138833
-0.00135412
0.00105249
0.00174506
-0.0016456
0.00112402
0.00215854
-0.00192793
0.00116473
0.00267019
-0.00228488
0.00126551
0.00289887
-0.00293156
0.0013958
0.00272901
-0.00396986
0.00147203
0.00218364
-0.00551779
0.00143929
0.00122218
-0.00782416
0.00136445
-0.0110103
0.00112117
-0.000302198
-0.0106909
-0.000302198
-0.00111804
-0.00863077
0.000622904
-0.00166545
-0.0067514
0.00093168
-0.00182606
-0.00541533
0.0011133
-0.00156163
-0.00453332
0.00123522
-0.0012927
-0.00409284
0.00120902
-0.00093852
-0.00369349
0.00116227
-0.000428899
-0.00321859
0.0011373
0.00019653
-0.00269809
0.00111607
0.000775117
-0.00245468
0.00108343
0.00135809
-0.0026834
0.00104948
0.00190114
-0.00294957
0.00105239
0.00240102
-0.00320313
0.00105765
0.00286043
-0.00344936
0.00106202
0.00323132
-0.00374937
0.0010936
0.003361
-0.00421926
0.001158
0.0031501
-0.00495987
0.00120091
0.00253651
-0.00611038
0.00120617
0.0014484
-0.00791311
0.00117705
-0.010524
0.000962126
-0.000501194
-0.00968854
-0.000501194
-0.00148216
-0.00806679
0.000416984
-0.00213675
-0.00672389
0.000627073
-0.0023453
-0.00585451
0.000647724
-0.00216126
-0.00531529
0.000597936
-0.00177552
-0.00501207
0.000533495
-0.00123719
-0.00474179
0.000509965
-0.00059098
-0.00440724
0.000542431
0.000143522
-0.00400314
0.000570546
0.000846618
-0.00377436
0.000616574
0.00151222
-0.00395094
0.000601931
0.00215114
-0.00415816
0.000569664
0.00274298
-0.00434399
0.000549011
0.00325389
-0.00450781
0.000547537
0.00362226
-0.00468605
0.000568296
0.00374938
-0.00495515
0.00060877
0.00351683
-0.00542753
0.000700205
0.00282432
-0.0062192
0.000801332
0.00160715
-0.00754341
0.000847464
-0.00960435
0.000687456
-0.000826545
-0.00803546
-0.000826545
-0.00197927
-0.00680244
-0.000111633
-0.00271669
-0.00593282
-5.36534e-05
-0.00294847
-0.00546039
-0.000162345
-0.00274392
-0.00519441
-0.00032543
-0.00223333
-0.00504425
-0.000478429
-0.0015149
-0.00490053
-0.000559696
-0.000685048
-0.00471135
-0.000525739
0.000152229
-0.00446173
-0.000378697
0.000896505
-0.00426753
-0.000251113
0.00162367
-0.00441595
-0.000262168
0.00235745
-0.00455977
-0.00033218
0.00305224
-0.00464926
-0.000389524
0.00365435
-0.00469396
-0.000415957
0.0040921
-0.00473281
-0.000390999
0.00425178
-0.00482783
-0.000286999
0.00400608
-0.00505665
-0.000125187
0.00322931
-0.00551743
7.49859e-05
0.00183458
-0.0064166
0.000267913
-0.00795273
0.000182964
-0.00143899
-0.00515748
-0.00143899
-0.00278381
-0.00444882
-0.00100881
-0.0035582
-0.00408123
-0.00107721
-0.00376284
-0.00397704
-0.00127872
-0.00350424
-0.00397064
-0.00148238
-0.00289177
-0.00399532
-0.00166141
-0.00203045
-0.00400526
-0.0017566
-0.00101811
-0.00396658
-0.00175711
3.13249e-05
-0.00385319
-0.00165798
0.00093183
-0.0037136
-0.00145444
0.0018296
-0.00380606
-0.00150766
0.00273469
-0.00386736
-0.00159751
0.00356979
-0.00385929
-0.00162507
0.00427388
-0.00380007
-0.00159799
0.00477957
-0.00372224
-0.00151627
0.00497981
-0.0036642
-0.00136389
0.00473905
-0.00366476
-0.00115114
0.00390404
-0.00378119
-0.000901224
0.00232676
-0.00417948
-0.000659845
-0.00506278
-0.000563192
-0.00257874
-0.00257874
-0.00420605
-0.00282151
-0.00494468
-0.00334261
-0.00507806
-0.00384366
-0.00473862
-0.00431008
-0.00403829
-0.00469565
-0.0030446
-0.00499895
-0.00180583
-0.00520536
-0.00037719
-0.00528183
0.00102963
-0.00512043
0.00229867
-0.0050751
0.00347514
-0.00504384
0.00448891
-0.00487307
0.0053038
-0.00461496
0.00587951
-0.00429795
0.00614071
-0.0039254
0.00596139
-0.00348544
0.00515435
-0.00297415
0.00333897
-0.00236411
-0.00172381
0.00296528
-0.00465888
0.00504352
0.0046241
-0.00331764
0.0046241
0.00481641
-0.00159478
0.00377489
0.00334642
0.00047156
0.00285981
0.000329346
0.0023478
0.00208609
-0.000814387
0.00106522
0.000760401
-0.000507373
-0.00031326
-0.000127885
-0.000217037
-0.00016608
-0.000279261
-2.42336e-05
-9.4056e-05
-0.00029113
0.000142621
-9.70931e-05
-0.000298657
0.000292065
-0.000164745
-0.000154024
0.000251227
-0.000178434
8.25102e-05
-0.000974908
0.000840554
0.000997204
-0.00323906
0.00189736
0.001252
-0.0052612
0.00155237
0.00125632
-0.00665797
0.000776857
0.00138649
-0.00715897
-0.00029737
0.0016869
-0.00659875
-0.00155735
0.00210803
-0.00453503
-0.00327627
0.00255512
-0.00585717
0.0028711
0.00159132
-0.00714216
0.00248122
0.00264056
-0.00541613
0.00264056
0.00293155
-0.0028438
0.00223923
0.00216542
0.000471294
0.00162605
0.00115148
0.00279029
0.00145903
0.00021506
0.0015164
0.00104658
-0.000332744
8.7684e-05
0.000142907
-0.000398482
2.46651e-05
-0.000570473
-0.000386655
0.000124731
-0.000778744
-0.000502784
0.000165188
-0.000637931
-0.000725636
4.75341e-05
-0.000273695
-0.00108654
3.7075e-05
0.000138187
-0.00132614
0.000731039
0.000488863
-0.00168136
0.00198674
0.000822176
-0.00250808
0.00216802
0.000745591
-0.00341798
0.00145072
0.00069359
-0.0040167
2.72801e-07
0.000911232
-0.0036997
-0.00234604
0.00141366
-0.00244881
-0.00518449
0.00179792
-0.00896403
0.00193669
0.00100746
-0.00829513
0.000808045
0.00156663
-0.00653447
0.00156663
0.00177616
-0.00369731
0.00165731
0.00188173
-0.00018052
0.00143214
0.00182434
0.00232118
0.00129947
0.00139566
0.00146625
0.00111163
0.000604562
0.000666057
0.00075855
-1.13669e-05
0.000623443
0.000189622
-0.000322132
0.000678163
-0.000622206
-0.000525697
0.000597242
-0.000729643
-0.000832739
0.000492546
-0.000444323
-0.0011708
0.000397201
-9.55155e-05
-0.00125348
0.000671951
0.000199391
-0.000980859
0.00153503
0.000519274
-0.000908689
0.00201343
0.000613198
-0.00102186
0.00145839
0.000682972
-0.00118158
1.76615e-05
0.00107599
-0.00135785
-0.00248109
0.00157875
-0.00104381
-0.00599034
0.00174229
-0.0103414
0.00153345
0.000800736
-0.00874423
-0.000179112
0.0010139
-0.00696081
0.0010139
0.000933748
-0.00408581
0.0015303
0.0012087
-0.000856565
0.00158447
0.00178675
0.00148678
0.00156357
0.00175912
0.00123164
0.0015418
0.00128031
0.000949418
0.00138409
0.000669763
0.00115116
0.00102523
0.00018815
0.00129254
0.00033422
-3.48557e-05
0.00117764
-0.000308157
-0.000244649
0.00105709
-0.000277985
-0.000565236
0.000968791
8.29409e-05
-0.000707371
0.000958611
0.000325137
-0.000330217
0.00122575
0.000565039
0.000252761
0.00148602
0.000808514
0.000719189
0.00100749
0.00116434
0.000672672
-0.000219587
0.00175032
0.000192851
-0.00252164
0.0020003
-0.000150268
-0.00616054
0.00190672
-0.0106568
0.00134201
0.00071404
-0.0088237
-0.000752252
0.000698752
-0.00693024
0.000698752
0.000387332
-0.00414297
0.00143268
0.000434032
-0.00130139
0.00173086
0.000948176
0.000659046
0.00190268
0.00100279
0.000823857
0.00185168
0.000743358
0.00092554
0.0017052
0.000475479
0.0013129
0.00143231
0.000323947
0.00161489
0.000989855
0.000361066
0.00160457
0.00049821
0.000472421
0.00148955
0.000396048
0.000497019
0.00136326
0.000633408
0.000528267
0.00123402
0.000817355
0.000808113
0.00116249
0.000948129
0.00131555
0.001069
0.00117509
0.0016198
0.000536372
0.00156266
0.00148307
-0.000624069
0.00201323
0.000944726
-0.00271376
0.00216976
0.000287504
-0.00610954
0.00197066
-0.0103785
0.00113039
0.000622904
-0.00863077
-0.00111804
0.000444478
-0.00657339
0.000444478
-6.2155e-06
-0.0039962
0.00123559
-6.69265e-05
-0.00169237
0.00156498
0.00017792
-0.000155374
0.00180478
0.000215854
0.000266984
0.00172795
0.000132947
0.000584484
0.00158623
0.000132964
0.00103273
0.00141744
0.000258497
0.0014244
0.00118102
0.000530404
0.00150909
0.000906992
0.000859827
0.00140823
0.000801362
0.00112441
0.00125519
0.000895877
0.00134411
0.00106979
0.00100217
0.00161157
0.000868472
0.00108856
0.00191497
0.000600545
0.00125864
0.00204825
5.32459e-06
0.00155577
0.00179795
-0.00102112
0.00184825
0.00123552
-0.00291131
0.00196615
0.000487267
-0.00595085
0.00176662
-0.00972857
0.000799496
0.000416984
-0.00806679
-0.00148216
9.02683e-05
-0.00591997
9.02683e-05
-0.000424221
-0.00371115
0.000856508
-0.000607052
-0.00201277
0.00115095
-0.000468622
-0.000940902
0.00124503
-0.000324926
-0.000514659
0.00117144
-0.000166121
-0.000162591
0.00109823
5.64693e-05
0.000276743
0.00107582
0.000304483
0.00075037
0.000996551
0.000610199
0.000949782
0.000870156
0.000977295
0.000848756
0.000794305
0.00133496
0.000656686
0.000810498
0.0016628
0.000437428
0.00085352
0.00197994
0.000202973
0.00089589
0.00225905
-9.33362e-05
0.000983059
0.00232728
-0.000590945
0.00113681
0.00207279
-0.00143366
0.00136722
0.001482
-0.00299574
0.00147654
0.000665723
-0.00553251
0.00124539
-0.00870231
0.000326913
-0.000111633
-0.00680244
-0.00197927
-0.000601563
-0.00494012
-0.000601563
-0.00114217
-0.00332086
9.66574e-05
-0.00136499
-0.00220325
0.000250935
-0.00127943
-0.00155064
0.000198742
-0.00104172
-0.00128742
5.661e-05
-0.000657858
-0.00106748
-3.86725e-05
-0.000200126
-0.000762021
5.52841e-05
0.000258632
-0.000354822
0.000267727
0.000694634
-0.000147772
0.000410429
0.00115006
-0.000229166
0.000360319
0.00162995
-0.000404636
0.000249243
0.00209869
-0.000578416
0.000157565
0.00252812
-0.000741877
9.94586e-05
0.00284725
-0.000917139
0.000113666
0.00291669
-0.00119419
0.000246797
0.00263899
-0.00176051
0.000479363
0.00197937
-0.00285859
0.000597455
0.000991837
-0.00468239
0.000405327
-0.0071576
-0.000369909
-0.00100881
-0.00444882
-0.00278381
-0.00190054
-0.00315666
-0.00190054
-0.00241701
-0.00230985
-0.00157175
-0.00246688
-0.00186126
-0.00157084
-0.00222409
-0.00163967
-0.00163613
-0.00176416
-0.00153328
-0.00187549
-0.0011591
-0.00142596
-0.00200318
-0.000472361
-0.00124791
-0.00195797
0.000225806
-0.00097614
-0.00173484
0.000783442
-0.000716588
-0.00144327
0.00142247
-0.000895101
-0.00148076
0.00208835
-0.00108497
-0.00158307
0.00270912
-0.00119137
-0.00163288
0.00325136
-0.00124891
-0.0016332
0.0036693
-0.00129425
-0.00155711
0.00385501
-0.00138672
-0.00135707
0.00370256
-0.00160716
-0.00115204
0.00303243
-0.00207425
-0.00101545
0.0017293
-0.00300059
-0.00103851
-0.00457614
-0.00141535
-0.00282151
-0.00420605
-0.00439984
-0.00439984
-0.00507434
-0.00497797
-0.00516603
-0.00561324
-0.00483921
-0.00627658
-0.00421684
-0.00685129
-0.00332863
-0.00731313
-0.0021621
-0.00761981
-0.000694077
-0.00772601
0.000976227
-0.00750733
0.00243929
-0.00743327
0.00365512
-0.00734464
0.00463972
-0.00704904
0.00540036
-0.00662452
0.00593071
-0.00612256
0.00617797
-0.00555938
0.00600988
-0.00492452
0.00520452
-0.00424304
0.00336501
-0.00352519
-0.00293494
0.00237243
-0.00252053
0.00519162
0.00377489
-0.00159478
0.00481641
0.00392813
-0.000306479
0.00392813
0.00262435
0.00134175
0.00282183
4.23538e-05
0.00270065
0.00196742
-0.00082525
0.00105563
0.000572359
-0.000339042
-0.000386093
-0.000227993
-6.29405e-05
-0.000204524
-0.000350847
4.06021e-05
-8.18536e-05
-0.000312831
7.89e-05
-0.000120568
-0.000216395
0.000128463
-0.000201566
-2.02528e-06
-0.00018203
1.6751e-05
0.00037624
-0.00157186
0.00125724
0.00112979
-0.0035969
0.00192051
0.00135653
-0.00535812
0.0015159
0.00150163
-0.00655202
0.00074261
0.00183778
-0.00692048
-0.000302834
0.00235818
-0.00631273
-0.00149107
0.00299134
-0.00430013
-0.00306213
0.00360465
-0.00534159
0.00391255
0.0012812
-0.00403311
0.00271258
0.00223923
-0.0028438
0.00293155
0.00250343
-0.00083489
0.00250343
0.00200313
0.00155181
0.00191627
0.00126447
0.00320963
0.0016887
0.000433642
0.00173158
0.00120145
-9.09955e-05
0.000115319
0.000166134
-0.000211969
-0.000149032
-0.000504992
-0.000337821
1.25222e-05
-0.000747273
-0.000682906
0.00011061
-0.000524031
-0.00110194
2.3199e-05
-7.94365e-05
-0.00156551
0.000242121
0.000376378
-0.001803
0.00123155
0.000752044
-0.00227463
0.00232493
0.000889374
-0.00308787
0.00229983
0.000774902
-0.00388657
0.00144332
0.00079158
-0.00432798
-6.34395e-05
0.00111324
-0.00392312
-0.0021698
0.00168752
-0.00256973
-0.00475983
0.00214223
-0.00811477
0.00214014
0.00101335
-0.00497176
0.000733337
0.00165731
-0.00369731
0.00177616
0.0020525
-0.00162528
0.0020525
0.00210636
0.0010955
0.00183458
0.00199327
0.00294113
0.00168105
0.00147404
0.00197824
0.0013842
0.000666815
0.000817037
0.000864053
9.34464e-05
0.000440008
0.000173951
-0.000338122
0.000454986
-0.000633103
-0.000771376
0.00047112
-0.000656907
-0.00126109
0.000370332
-0.000301748
-0.00164729
0.000412513
0.000120287
-0.00172592
0.00107047
0.000439098
-0.0016029
0.00212531
0.000595867
-0.00171439
0.00249579
0.00052872
-0.00201601
0.00188523
0.000542673
-0.00222078
0.00032891
0.000888406
-0.00213887
-0.00215281
0.00147985
-0.00146605
-0.00542882
0.00173845
-0.00934465
0.00129728
0.00106166
-0.00572848
-0.000484048
0.0015303
-0.00408581
0.000933748
0.00174492
-0.00205453
0.00174492
0.00197314
0.000558372
0.00189337
0.00219051
0.00244571
0.00184161
0.00196699
0.00203723
0.00170632
0.00141482
0.00132204
0.00143126
0.000758306
0.00112339
0.000998359
0.000174671
0.00114047
0.000232367
-0.000298285
0.00105384
-0.000417927
-0.000801094
0.000912424
-0.000317276
-0.00124734
0.000876188
6.54964e-05
-0.00134155
0.00113978
0.000350029
-0.0010077
0.00182498
0.000531509
-0.0006483
0.00232327
0.000621623
-0.00044872
0.00199378
0.000856202
-0.000560607
0.000750364
0.00144075
-0.000846516
-0.0017498
0.00188319
-0.000767789
-0.00543264
0.00183181
-0.00966663
0.000896197
0.00106411
-0.00636712
-0.00117773
0.00143268
-0.00414297
0.000387332
0.0014517
-0.00209257
0.0014517
0.00156041
0.000274926
0.00190559
0.00183329
0.00204173
0.00203376
0.00172853
0.00201276
0.0019809
0.00131816
0.00164556
0.00179204
0.0008172
0.0016059
0.00145076
0.000385243
0.00168888
0.00087339
0.000118433
0.00163149
0.000187359
-0.000124423
0.00152122
3.01021e-05
-0.000408375
0.00146046
0.000333078
-0.000524948
0.00150136
0.00057234
-0.000255248
0.00178409
0.00071931
0.000206291
0.00212371
0.000913103
0.000523267
0.00191325
0.00132621
0.000456179
0.000864738
0.00196594
-1.53104e-05
-0.00138917
0.00228062
-0.00030676
-0.00509633
0.0019258
-0.0094314
0.00058839
0.00093168
-0.0067514
-0.00166545
0.00123559
-0.0039962
-6.2155e-06
0.00113643
-0.00189425
0.00113643
0.00109314
0.000187906
0.00169529
0.00125851
0.00173147
0.00194966
0.00118595
0.00188703
0.00192623
0.000918228
0.00172311
0.0017764
0.000630854
0.00176848
0.00154222
0.00041515
0.00191013
0.00117546
0.00033536
0.00192615
0.00069211
0.000344591
0.00185809
0.000455248
0.000307318
0.00178603
0.000607569
0.00030036
0.00173212
0.000778354
0.00050293
0.00178047
0.000889603
0.000877413
0.00191324
0.00109461
0.00110572
0.00172529
0.00151541
0.000963754
0.000795854
0.00205909
0.000488788
-0.00122968
0.00228162
5.15448e-05
-0.00468382
0.00179135
-0.00878025
0.000199897
0.000627073
-0.00672389
-0.00213675
0.000856508
-0.00371115
-0.000424221
0.000708803
-0.00159884
0.000708803
0.000568608
0.000273231
0.00120581
0.000661922
0.00141936
0.00146382
0.000664119
0.00160738
0.00144888
0.000571516
0.0015534
0.00136054
0.000485386
0.00165704
0.00127339
0.000446548
0.00183098
0.00111453
0.000478431
0.00191411
0.000850308
0.000606642
0.00187101
0.000653164
0.000736254
0.0017876
0.000679304
0.000859541
0.00169967
0.000762674
0.00106959
0.00165136
0.000814948
0.00135772
0.00165011
0.000958044
0.00149706
0.00145329
0.00126946
0.0013046
0.000667401
0.00168814
0.000831301
-0.00114376
0.00186391
0.000314353
-0.00418802
0.00126653
-0.00783424
-0.000304747
-5.36534e-05
-0.00593282
-0.00271669
9.66574e-05
-0.00332086
-0.00114217
-7.40247e-05
-0.00125749
-7.40247e-05
2.06487e-05
3.00625e-05
0.000399421
0.00015142
0.000920633
0.000566686
0.000294045
0.00101265
0.000508711
0.000376641
0.000988284
0.000443838
0.000444187
0.00117021
0.000474564
0.000524971
0.00145882
0.00055909
0.000611572
0.00166225
0.00057568
0.000787253
0.00158528
0.000470357
0.00101526
0.00141228
0.000396556
0.00124024
0.00126901
0.000363231
0.00148497
0.00116365
0.000342427
0.00173767
0.00109994
0.00041113
0.00186775
0.000937128
0.000632872
0.00179593
0.000276441
0.000942139
0.00138828
-0.00106913
0.000930476
0.000743994
-0.00344497
0.000306558
-0.00646928
-0.000990876
-0.00107721
-0.00408123
-0.0035582
-0.00157175
-0.00230985
-0.00241701
-0.00162865
-0.00114369
-0.00162865
-0.00133959
-0.000445319
-0.00138453
-0.000824202
1.09998e-05
-0.0012419
-0.000414726
8.72893e-05
-0.00135961
-0.000103582
0.000144909
-0.00147096
0.000203129
0.000321974
-0.00141645
0.0005066
0.000613782
-0.00119328
0.000757803
0.000913052
-0.000945281
0.00108349
0.000726568
-0.000947736
0.00143985
0.000480198
-0.00100736
0.00179173
0.000323087
-0.00103885
0.00214389
0.000223406
-0.00104512
0.00251256
0.000161438
-0.000987281
0.00284138
7.65624e-05
-0.000825328
0.00293621
-0.000304239
-0.000666188
0.00262685
-0.00102698
-0.000748243
0.00163954
-0.00228146
-0.00121471
-0.00425181
-0.00199328
-0.00334261
-0.00494468
-0.00497797
-0.00507434
-0.00554981
-0.00554981
-0.00553322
-0.00607516
-0.00510237
-0.00669644
-0.00447959
-0.00738678
-0.00363681
-0.00801101
-0.00246566
-0.00846898
-0.000903142
-0.00867475
0.000988211
-0.00848563
0.00262919
-0.00834769
0.00392288
-0.00815814
0.00490833
-0.00771141
0.00563305
-0.00712583
0.00614589
-0.00647397
0.00645314
-0.00579007
0.00636599
-0.00514161
0.00562403
-0.00452806
0.00372889
-0.00391153
-0.00345786
0.00186139
-0.000144818
0.00347504
0.00285981
0.00047156
0.00334642
0.00282183
0.00134175
0.00262435
0.00167004
0.00230357
0.00167004
-0.000417979
0.00293205
0.00112337
-0.000687632
0.000710448
0.000131556
-9.12721e-06
-0.000633584
-0.000272899
0.00019232
-0.0003114
-0.000240901
0.00013962
-0.000101282
-0.000158859
1.614e-05
-0.000151028
5.81055e-05
-3.34994e-05
-0.000227688
0.000275298
-0.000395956
0.000101005
0.000637685
-0.00169627
0.00134793
0.00108218
-0.00350632
0.00195512
0.00121145
-0.00504331
0.00161953
0.00141908
-0.00607036
0.000952618
0.0019122
-0.00631181
-5.16548e-05
0.00265129
-0.00568274
-0.00107892
0.00344118
-0.00381333
-0.00241007
0.00414531
-0.00429429
0.0043935
0.000859671
-0.000104374
0.00181246
0.00162605
0.000471294
0.00216542
0.00191627
0.00155181
0.00200313
0.00162311
0.00288987
0.00162311
0.00118413
0.00356364
0.00149606
0.000452145
0.00158038
0.00106351
4.22357e-05
-0.000139008
8.14732e-05
-3.89295e-05
-0.000440269
-0.000294956
-0.00025883
-0.000115163
-0.000513496
-0.000771284
4.66191e-05
-0.000209231
-0.00130418
1.14804e-05
0.00021428
-0.00181739
0.000364161
0.000626426
-0.00208576
0.00146463
0.000903703
-0.00258522
0.00250167
0.000842274
-0.00332241
0.00245009
0.000681528
-0.00395527
0.00163163
0.000745429
-0.00425641
0.000259389
0.00110334
-0.00377298
-0.00158583
0.00171099
-0.0024076
-0.00374717
0.00211395
-0.0065228
0.00196104
0.000885907
-0.00140086
0.00114391
0.00143214
-0.00018052
0.00188173
0.00183458
0.0010955
0.00210636
0.0019429
0.00267322
0.0019429
0.00189432
0.00349773
0.00179552
0.0013772
0.00209156
0.00139014
0.000616974
0.000690863
0.000794407
9.55324e-05
8.42028e-05
0.000170922
-0.00034358
0.000145805
-0.000454959
-0.000925915
0.000323157
-0.000351117
-0.00154057
0.000284231
4.01427e-05
-0.00197529
0.000498742
0.000420419
-0.00212259
0.0013907
0.000660325
-0.00215954
0.0024992
0.000635282
-0.00239822
0.00278139
0.000436101
-0.00271347
0.00209459
0.000394957
-0.00280551
0.000576008
0.000663819
-0.00245694
-0.00157756
0.00112301
-0.00154685
-0.00427222
0.00135341
-0.00757378
0.000801406
0.00118339
-0.0032221
0.000153791
0.00158447
-0.000856565
0.0012087
0.00189337
0.000558372
0.00197314
0.00213489
0.00219017
0.00213489
0.00225393
0.00316955
0.00205074
0.00194632
0.00232397
0.0017815
0.00138509
0.00127643
0.00140692
0.000752072
0.000803103
0.000912474
0.000164956
0.000754213
0.000211071
-0.000502153
0.000787109
-0.000214778
-0.0012207
0.00069627
-1.07753e-05
-0.00173831
0.000758823
0.000323013
-0.00186376
0.00132329
0.000542877
-0.00168084
0.00226978
0.000577997
-0.00153856
0.00278246
0.000478266
-0.00151781
0.00239039
0.00053965
-0.00155991
0.00110396
0.000954882
-0.00145317
-0.00120952
0.00140841
-0.000982726
-0.00428354
0.00137268
-0.00800184
0.000341525
0.00133274
-0.00446264
-0.00126994
0.00173086
-0.00130139
0.000434032
0.00190559
0.000274926
0.00156041
0.00207467
0.001852
0.00207467
0.00222674
0.00286769
0.00218355
0.00203218
0.0024412
0.00205823
0.00157444
0.00171724
0.00180897
0.00102136
0.00136169
0.00144525
0.000490446
0.00130891
0.000849598
-4.03117e-05
0.00129992
0.000205294
-0.000641659
0.00119759
0.000130119
-0.00114787
0.00117734
0.000420761
-0.00131809
0.00144031
0.000625532
-0.00109367
0.00206908
0.000695577
-0.000755684
0.0026346
0.000722966
-0.000521373
0.00252617
0.000956106
-0.000474104
0.00150758
0.00151505
-0.000602917
-0.000703761
0.00190366
-0.000535662
-0.00397924
0.00155424
-0.00802836
7.92532e-05
0.0011133
-0.00541533
-0.00182606
0.00156498
-0.00169237
-6.69265e-05
0.00169529
0.000187906
0.00109314
0.00176372
0.00171513
0.00176372
0.00189044
0.0026376
0.00205303
0.00177672
0.00243695
0.00204419
0.00144724
0.0019367
0.00188641
0.00104417
0.00168348
0.0016235
0.000658179
0.00167034
0.00120001
0.000304383
0.00168388
0.00066194
-8.90813e-05
0.00161649
0.000429809
-0.000463446
0.00154668
0.000612578
-0.000634296
0.00160519
0.000784315
-0.00046477
0.00193053
0.000858621
-9.13271e-05
0.00239839
0.000957371
0.000223148
0.00244359
0.00128351
0.000304503
0.00163743
0.00184789
5.91435e-07
-0.000280554
0.00216232
-0.000108924
-0.00358774
0.00150935
-0.00771664
-0.00022075
0.000647724
-0.00585451
-0.0023453
0.00115095
-0.00201277
-0.000607052
0.00120581
0.000273231
0.000568608
0.00125131
0.00162413
0.00125131
0.00140625
0.00232505
0.00162142
0.00142193
0.00217617
0.00169397
0.00126144
0.00182061
0.00163711
0.00102431
0.00167257
0.00152142
0.000779124
0.00172341
0.00130664
0.000534496
0.00180037
0.000978437
0.00031578
0.00174522
0.000743137
0.000102743
0.00163874
0.000800278
-6.93564e-06
0.00157887
0.000898665
0.000116676
0.00168978
0.000932073
0.00046458
0.00198923
0.0010193
0.00078029
0.00209304
0.00130429
0.000838474
0.00150617
0.00176121
0.000575342
-6.41627e-05
0.00191065
0.000287053
-0.00313802
0.0011051
-0.00710698
-0.000627354
-0.000162345
-0.00546039
-0.00294847
0.000250935
-0.00220325
-0.00136499
0.000399421
3.00625e-05
2.06487e-05
0.000549684
0.00132359
0.000549684
0.00083977
0.00172953
0.000872119
0.00104604
0.00154107
0.000937541
0.00109364
0.00129719
0.000919647
0.0010401
0.0012843
0.00091637
0.000926289
0.00147085
0.000925454
0.000741704
0.00167941
0.000881224
0.000624117
0.00158624
0.000746916
0.000577929
0.00137593
0.000705547
0.000575976
0.00123872
0.00070532
0.000698115
0.00121481
0.000695259
0.000993408
0.00135032
0.000754736
0.00130352
0.00145798
0.000957818
0.00140843
0.00110712
0.00123627
0.00127656
-0.000203066
0.00120124
0.000800583
-0.0026564
0.000300912
-0.00606606
-0.00123122
-0.00127872
-0.00397704
-0.00376284
-0.00157084
-0.00186126
-0.00246688
-0.00138453
-0.000445319
-0.00133959
-0.000889799
0.000334123
-0.000889799
-0.000302695
0.00056984
-0.000669325
0.000101776
0.000533796
-0.000756821
0.000329779
0.000540746
-0.00094252
0.000519324
0.000695612
-0.00101732
0.00073274
0.000990715
-0.000926568
0.00083766
0.00135577
-0.000726572
0.00105703
0.00112344
-0.000704322
0.00129152
0.00080204
-0.000667965
0.00149942
0.000607649
-0.000615685
0.00172471
0.000501551
-0.000557156
0.00205471
0.000477538
-0.000444502
0.00246784
0.000472879
-0.000253364
0.00272985
0.000260336
-8.14223e-05
0.00258452
-0.000505475
-0.000300513
0.00175629
-0.00193437
-0.00110851
-0.00415789
-0.00214515
-0.00384366
-0.00507806
-0.00561324
-0.00516603
-0.00607516
-0.00553322
-0.0059081
-0.0059081
-0.00547699
-0.00655772
-0.00493256
-0.00739742
-0.00415935
-0.00824348
-0.00296714
-0.00896559
-0.00122122
-0.00942997
0.00106823
-0.00941932
0.0030095
-0.00916552
0.00442223
-0.00876883
0.00540083
-0.00808236
0.00604828
-0.00727174
0.00647756
-0.00642571
0.00675447
-0.0055941
0.00675037
-0.00487718
0.00607542
-0.00435859
0.00409081
-0.00386129
-0.00352494
0.00141683
0.00211168
-5.34902e-05
0.00208609
0.0023478
0.000329346
0.00196742
0.00270065
4.23538e-05
0.00112337
0.00293205
-0.000417979
-0.000246128
0.00273898
-0.000246128
-0.000242135
0.000147764
-2.02049e-05
0.000375058
-0.000846988
-4.30853e-05
0.000493581
-0.000476609
0.000117184
0.000280082
-0.000169404
0.00022404
3.19725e-07
-0.000186843
0.000524706
-0.00016286
-0.000262059
0.000700532
-0.000421518
1.60928e-05
0.000880241
-0.00149359
0.00120051
0.000953751
-0.003083
0.00200608
0.000794786
-0.00440052
0.00188558
0.000851013
-0.00524182
0.00143841
0.00131509
-0.00545074
0.000748692
0.00211151
-0.00484354
-0.000208851
0.00304283
-0.0032111
-0.00126069
0.00377356
-0.00277738
0.00395977
0.000887591
0.00258448
0.000452059
0.00145903
0.00279029
0.00115148
0.0016887
0.00320963
0.00126447
0.00149606
0.00356364
0.00118413
0.00124558
0.00323992
0.00124558
0.000605365
0.00111273
0.000738756
0.000265783
-0.000548628
0.000122705
0.000204985
-0.000724304
1.35411e-05
-0.000160623
-0.000228429
-8.88666e-05
-0.000807552
-1.28971e-05
0.000263743
-0.00139118
-3.16267e-05
0.000567466
-0.00191579
0.000337502
0.000829621
-0.00221041
0.0014165
0.000982336
-0.00265534
0.00255191
0.000741364
-0.00327927
0.00271449
0.000476526
-0.00377647
0.00218288
0.000498144
-0.00389703
0.0011492
0.000823386
-0.00344763
-0.000251728
0.00130447
-0.00217607
-0.00207848
0.00166018
-0.00442339
0.00143098
0.000772975
0.00157752
0.00137789
0.00129947
0.00232118
0.00182434
0.00168105
0.00294113
0.00199327
0.00179552
0.00349773
0.00189432
0.00173539
0.00336018
0.00173539
0.00124295
0.00171618
0.00127912
0.000593038
0.000245733
0.000649962
0.000166826
-0.000362127
0.00023496
-0.000296967
-0.000143027
-7.6571e-05
-0.00100365
0.000210729
0.000131928
-0.0016697
0.00022281
0.000451751
-0.00214222
0.000518213
0.00071222
-0.00238203
0.00147446
0.000842151
-0.00252736
0.00262952
0.000702996
-0.00281215
0.00301569
0.000419687
-0.00308474
0.00252703
0.000323386
-0.00308584
0.00132627
0.000487844
-0.00256052
-0.000418152
0.000764113
-0.00154205
-0.00254118
0.000797644
-0.00548934
0.000325297
0.00130723
-0.000782231
0.00120631
0.00156357
0.00148678
0.00178675
0.00184161
0.00244571
0.00219051
0.00205074
0.00316955
0.00225393
0.00210493
0.00325177
0.00210493
0.00178048
0.00208689
0.00173523
0.00120818
0.000937527
0.00128743
0.000608429
0.000353983
0.000796118
4.33563e-05
0.000343973
0.000289141
-0.000694233
0.000550954
0.00018258
-0.00147048
0.000560196
0.000428071
-0.00202737
0.000725763
0.000672347
-0.00225519
0.00145109
0.000794059
-0.00225953
0.00249756
0.000714288
-0.00229794
0.00304221
0.000490154
-0.00235369
0.00271508
0.00040735
-0.00225737
0.00158583