/*--------------------------------*- C++ -*----------------------------------*\
  =========                 |
  \\      /  F ield         | OpenFOAM: The Open Source CFD Toolbox
   \\    /   O peration     | Website:  https://openfoam.org
    \\  /    A nd           | Version:  8
     \\/     M anipulation  |
\*---------------------------------------------------------------------------*/
FoamFile
{
    version     2.0;
    format      ascii;
    class       volVectorField;
    location    "1400";
    object      U;
}
// * * * * * * * * * * * * * * * * * * * * * * * * * * * * * * * * * * * * * //

dimensions      [0 1 -1 0 0 0 0];

internalField   nonuniform List<vector> 
4000
(
(0.00815668 -0.0250854 0.00815668)
(0.0167155 -0.017973 0.00770424)
(0.0210453 -0.0110344 0.00658767)
(0.0200842 -0.00435953 0.00572222)
(0.00985829 0.00287119 0.00467717)
(-0.00976223 0.000407896 0.00158315)
(-0.00162739 -0.00089241 -0.000479469)
(-0.00292228 -0.000567688 -0.000479373)
(-0.000727151 -0.000714686 -0.000615049)
(0.000275801 -0.000747113 -0.000725604)
(0.00184696 -0.000650054 -0.000615061)
(0.00175696 -0.00115255 -0.000583466)
(0.00622204 -0.00102157 0.00101418)
(-0.0041554 0.00455351 0.00253179)
(-0.0154959 0.00210628 0.00219137)
(-0.0237142 -0.00101834 0.00214528)
(-0.0282757 -0.00408697 0.00246567)
(-0.0275727 -0.00802433 0.0030113)
(-0.0217763 -0.0136068 0.00355431)
(-0.0105692 -0.0219422 0.00407381)
(0.00351513 -0.0343952 0.00351513)
(0.00827956 -0.0240205 0.00377147)
(0.0102466 -0.0124385 0.00326067)
(0.0102249 0.00223757 0.00231709)
(0.00645978 0.0112852 0.00284254)
(-0.00269375 0.00249766 0.00128656)
(-0.00215079 -0.00173385 -0.000367494)
(-0.00376931 -0.00078238 -0.00154607)
(-0.00201519 -0.000262608 -0.00182394)
(-0.00123827 0.000133481 -0.00171432)
(-0.000408812 5.6821e-05 -0.00117108)
(-0.000618025 -0.000595568 -0.000293812)
(-0.0020028 0.000868961 -5.00575e-05)
(-0.0017626 0.00738664 0.00180555)
(-0.00497047 0.00860811 0.00173988)
(-0.00904997 0.00617842 0.00154828)
(-0.0127708 0.00108146 0.00203649)
(-0.0125756 -0.00769578 0.00286997)
(-0.0104998 -0.0177493 0.0031497)
(-0.00323161 -0.0319286 0.0034498)
(0.00150378 -0.0430928 0.00150378)
(0.00332542 -0.0316762 0.00237381)
(0.00252466 -0.0183526 0.00250646)
(0.00342208 -0.00252764 0.00257722)
(0.00644723 0.00997481 0.00242041)
(0.00429482 0.00431595 0.00185736)
(0.00370743 0.00203431 0.00177016)
(-0.00065046 0.00193118 0.000659694)
(-0.0018012 0.00155262 -0.00100537)
(-0.00111852 0.00108793 -0.00156389)
(-0.000467344 0.000774133 -0.000953635)
(-0.00131668 0.00016835 -8.90935e-05)
(-0.00293985 0.000411488 0.000185672)
(-0.0017713 0.00442003 0.00114742)
(-0.000655893 0.00771859 0.00179135)
(-0.00110954 0.00589406 0.00185567)
(0.00193182 -0.00171701 0.003237)
(0.000393858 -0.012454 0.00363707)
(-0.0015771 -0.0251503 0.00324421)
(0.000661625 -0.041046 0.00317343)
(0.000529408 -0.0459723 0.000529408)
(0.000546539 -0.034402 0.00182303)
(-0.00195691 -0.0212462 0.00233966)
(-0.00237197 -0.00952993 0.00309955)
(0.00400699 0.00395319 0.00409532)
(0.0050092 0.000247705 0.00418472)
(0.00474822 0.000135986 0.00402684)
(0.00318482 0.00304489 0.00332452)
(0.0010946 0.00392687 0.00193945)
(0.000463664 0.0033267 0.000897359)
(0.00106089 0.00311919 0.00098237)
(0.00103149 0.00276102 0.00161037)
(0.000335139 0.00189517 0.0020675)
(0.000997227 0.00154952 0.00246242)
(0.00328754 0.00242795 0.00305884)
(0.00671914 -0.00163745 0.00385408)
(0.00818929 -0.0075799 0.00406047)
(0.00744635 -0.0161747 0.00360972)
(0.00406202 -0.0282911 0.00316416)
(0.00284354 -0.0439478 0.00295303)
(-0.000115606 -0.0460811 -0.000115606)
(-0.00112081 -0.0353664 0.00139346)
(-0.00464954 -0.0244457 0.0017671)
(-0.00530872 -0.0156797 0.00253573)
(-0.00390448 -0.00972544 0.00346203)
(-0.00159643 -0.00775356 0.00320336)
(-0.00124877 -0.00558646 0.00311992)
(-0.000436481 -0.00271016 0.00335903)
(0.00102046 0.000303946 0.00365214)
(0.00188017 0.000597312 0.00357036)
(0.00319171 -0.000609108 0.00349774)
(0.00481314 -0.00208009 0.00351931)
(0.00628481 -0.00334073 0.00342683)
(0.00781426 -0.00462176 0.00330231)
(0.00971723 -0.00633488 0.00326813)
(0.0113389 -0.00908457 0.00313413)
(0.011574 -0.0136703 0.00284257)
(0.0105139 -0.0206054 0.00255298)
(0.00662803 -0.0307892 0.00248163)
(0.00407411 -0.0446115 0.0025698)
(-0.000718433 -0.044541 -0.000718433)
(-0.00220011 -0.0354457 0.000790181)
(-0.00639986 -0.0268041 0.000659923)
(-0.00726885 -0.0204481 0.000704474)
(-0.00699046 -0.0160078 0.000592204)
(-0.00579497 -0.0142195 0.000449846)
(-0.00454947 -0.0125245 0.00038976)
(-0.00280658 -0.0104213 0.000582947)
(-0.000557947 -0.00823355 0.00105683)
(0.0020948 -0.00720385 0.00147732)
(0.00424079 -0.00814919 0.00132807)
(0.00653364 -0.00924893 0.00107528)
(0.00865273 -0.0103538 0.000860643)
(0.0105963 -0.0114519 0.000720394)
(0.0123072 -0.0127925 0.000656862)
(0.0134155 -0.0150182 0.000662534)
(0.0133464 -0.0185299 0.000785487)
(0.0121064 -0.0238679 0.00100735)
(0.00780048 -0.0320541 0.00141742)
(0.00478975 -0.0436667 0.00192033)
(-0.00150318 -0.0413721 -0.00150318)
(-0.00331019 -0.0340883 -0.000170558)
(-0.0080936 -0.0277569 -0.000839205)
(-0.00931117 -0.0235447 -0.00142403)
(-0.0092921 -0.0208804 -0.00202576)
(-0.00804875 -0.0194549 -0.00249612)
(-0.00613326 -0.018183 -0.00283148)
(-0.00369094 -0.0166355 -0.00296455)
(-0.00100055 -0.0147847 -0.00285498)
(0.00220865 -0.0137271 -0.00244617)
(0.00466977 -0.014511 -0.0024977)
(0.00733345 -0.0154589 -0.00265664)
(0.00984534 -0.0163286 -0.00272276)
(0.0120906 -0.0171238 -0.00264976)
(0.0139102 -0.0180288 -0.00242266)
(0.0150021 -0.0194073 -0.00201667)
(0.0148997 -0.0217052 -0.00145922)
(0.0134694 -0.0254695 -0.000762183)
(0.0086781 -0.0316403 9.95124e-05)
(0.00545085 -0.0409008 0.00100627)
(-0.00281316 -0.0355146 -0.00281316)
(-0.00505812 -0.0301435 -0.0018396)
(-0.0102587 -0.0260544 -0.00283642)
(-0.0117454 -0.0236024 -0.00380903)
(-0.0116894 -0.0221135 -0.00465377)
(-0.0101476 -0.0212799 -0.00530716)
(-0.00761261 -0.0205645 -0.00579828)
(-0.00445679 -0.0197078 -0.00613978)
(-0.00119514 -0.0186559 -0.00640154)
(0.00237328 -0.0179233 -0.00621553)
(0.00499855 -0.0184786 -0.00620708)
(0.00797321 -0.0190199 -0.00617241)
(0.0108925 -0.0193921 -0.00598559)
(0.0135262 -0.0196443 -0.00566147)
(0.0156621 -0.0199473 -0.00521167)
(0.0169597 -0.020585 -0.00459857)
(0.0169296 -0.0219019 -0.00380607)
(0.0152901 -0.0242496 -0.00282297)
(0.00999883 -0.0284174 -0.00160654)
(0.00646211 -0.0352296 -0.00034805)
(-0.00508643 -0.0261516 -0.00508643)
(-0.00823871 -0.0223978 -0.00486427)
(-0.0135199 -0.0201977 -0.00608144)
(-0.0150748 -0.0193289 -0.00731928)
(-0.0148397 -0.0190604 -0.00837538)
(-0.0129905 -0.0190704 -0.0092206)
(-0.00998085 -0.0190771 -0.00982519)
(-0.00618631 -0.0188818 -0.0101999)
(-0.00217605 -0.0183981 -0.010337)
(0.00229744 -0.0179852 -0.00986677)
(0.0055803 -0.0182705 -0.00984937)
(0.00917451 -0.0184854 -0.00986254)
(0.0127093 -0.0184465 -0.00964535)
(0.0158248 -0.0182134 -0.00923556)
(0.0182912 -0.0179241 -0.00865988)
(0.0197965 -0.0177773 -0.00789396)
(0.0198615 -0.0179945 -0.00692004)
(0.018092 -0.0188932 -0.00570995)
(0.0125839 -0.0212354 -0.004211)
(0.00835344 -0.0258439 -0.00260294)
(-0.00875903 -0.0159146 -0.00875903)
(-0.0139709 -0.0124864 -0.0100891)
(-0.0191087 -0.01084 -0.012213)
(-0.0204795 -0.0101982 -0.0141563)
(-0.0199321 -0.00984381 -0.015914)
(-0.0177568 -0.00950927 -0.0173553)
(-0.0143235 -0.00905624 -0.0185072)
(-0.00985148 -0.00843457 -0.0193586)
(-0.00486525 -0.00760015 -0.0198018)
(0.0015351 -0.00674358 -0.0192518)
(0.00697694 -0.00746 -0.0189619)
(0.0116714 -0.00810314 -0.0187177)
(0.0160647 -0.00854258 -0.0180458)
(0.0197551 -0.00880261 -0.0170922)
(0.0225726 -0.00895712 -0.0159417)
(0.0243256 -0.00910229 -0.0145963)
(0.0246321 -0.00936798 -0.0130043)
(0.0230206 -0.00998865 -0.0111406)
(0.0175932 -0.0116542 -0.00884677)
(0.0116733 -0.0155223 -0.00610522)
(0.00770424 -0.017973 0.0167155)
(0.0152954 -0.0129843 0.0152954)
(0.0196953 -0.00753342 0.0125786)
(0.0185486 -0.00202432 0.00980799)
(0.0100076 0.00437358 0.00726398)
(-0.00649114 0.00190163 0.00339225)
(-0.00158832 -0.00114697 -0.00049441)
(-0.00174835 -0.000566681 -0.000858933)
(-0.000311082 -0.000532469 -0.00100433)
(0.000206723 -0.000761434 -0.00114526)
(0.000954415 -0.00102856 -0.000758865)
(0.00140145 -0.00161099 -0.000425553)
(0.00103324 0.00216868 0.00349772)
(-0.00882083 0.00459045 0.00428332)
(-0.0181395 0.00182643 0.00401221)
(-0.0253 -0.00117242 0.00418971)
(-0.0291394 -0.00413999 0.00504186)
(-0.0282576 -0.00793484 0.00640947)
(-0.0222661 -0.0133164 0.00789867)
(-0.0114096 -0.021343 0.00909307)
(0.00377147 -0.0240205 0.00827956)
(0.00869661 -0.0172759 0.00869661)
(0.0112876 -0.00775118 0.0073103)
(0.0112672 0.00430266 0.00511839)
(0.00799837 0.0119267 0.00474088)
(0.000880134 0.0059443 0.00347957)
(0.000347195 -0.00159609 0.000318637)
(-0.00241505 -0.00100216 -0.00217341)
(-0.00120669 -0.000179838 -0.00282516)
(-0.00166693 9.41954e-05 -0.00244169)
(-0.00230474 -0.00017893 -0.00125557)
(-0.00398675 0.000209944 0.000190917)
(-0.00408431 0.00393112 0.00133854)
(-0.0055946 0.0089519 0.00282502)
(-0.00865495 0.00888497 0.00256671)
(-0.0126235 0.00594731 0.00228689)
(-0.0160747 0.000603795 0.00312674)
(-0.0157046 -0.00712418 0.00499083)
(-0.0126991 -0.0169611 0.00635921)
(-0.0049532 -0.0308853 0.00710468)
(0.00237381 -0.0316762 0.00332542)
(0.00563951 -0.0247299 0.00563951)
(0.00631096 -0.0137523 0.00580211)
(0.00765628 0.000358846 0.00476917)
(0.00823879 0.0109804 0.00412739)
(0.00589473 0.00673599 0.00351818)
(0.00471938 0.00243354 0.00261534)
(0.000797919 0.00127762 0.000771783)
(-0.000944558 0.00116946 -0.00219964)
(-0.00161587 0.00109294 -0.00268122)
(-0.0026785 0.000599574 -0.00170256)
(-0.00429038 0.000227923 -0.000587051)
(-0.00502701 0.00257461 0.00035287)
(-0.00425958 0.00765174 0.00176738)
(-0.00370516 0.00925086 0.00236846)
(-0.00441767 0.0066148 0.00263832)
(-0.00435198 -0.000353897 0.00416638)
(-0.00492673 -0.0102706 0.00617406)
(-0.00551135 -0.0231492 0.00673434)
(-0.00160011 -0.0397504 0.00644896)
(0.00182303 -0.034402 0.000546539)
(0.00443921 -0.0273708 0.00443921)
(0.00354489 -0.0157729 0.00595584)
(0.00350021 -0.00200735 0.00600398)
(0.00678099 0.00846375 0.00578636)
(0.00717843 0.00586734 0.00567778)
(0.00655454 0.00358431 0.00523405)
(0.00409749 0.00417967 0.00401262)
(0.00145748 0.00458997 0.00160797)
(0.000132889 0.00398401 -0.000592043)
(-0.000483546 0.00354891 -0.000500373)
(-0.00162267 0.00319415 0.000818158)
(-0.00291415 0.00332422 0.00151856)
(-0.00231861 0.00560547 0.00239407)
(-0.000244827 0.00769328 0.00348138)
(0.00191483 0.00556765 0.00497725)
(0.0034304 0.000463559 0.0069521)
(0.00227653 -0.00931115 0.00765039)
(-0.000883071 -0.0243965 0.00753884)
(0.00020674 -0.0425805 0.00624421)
(0.00139346 -0.0353664 -0.00112081)
(0.00396279 -0.0280878 0.00396279)
(0.00178912 -0.0167243 0.00615965)
(0.00094593 -0.00459473 0.00715601)
(0.00295685 0.00382768 0.00790661)
(0.00424613 0.00380966 0.00758891)
(0.00366224 0.00377436 0.00710233)
(0.00246027 0.00517677 0.00617723)
(0.00151111 0.00628922 0.00473036)
(0.00117952 0.00607606 0.00334337)
(0.00163979 0.00554027 0.00321645)
(0.0019893 0.00499464 0.00399747)
(0.00195667 0.00451991 0.0045772)
(0.00245931 0.00457861 0.0049902)
(0.0041164 0.00475273 0.0057775)
(0.00603641 0.0028727 0.00696109)
(0.00666636 -0.00191721 0.00799015)
(0.00552465 -0.0105119 0.00818033)
(0.00164689 -0.0245589 0.00778904)
(0.00126863 -0.0424239 0.00591062)
(0.000790181 -0.0354457 -0.00220011)
(0.00356 -0.0274788 0.00356)
(0.000339271 -0.0166556 0.00589604)
(-0.00046928 -0.00623084 0.00692277)
(0.000112545 0.000912536 0.00785046)
(0.00109604 0.00208577 0.00766823)
(0.000702837 0.00293573 0.00731061)
(0.000457023 0.00462513 0.00689094)
(0.000677689 0.00602887 0.00626249)
(0.00149354 0.00628261 0.00564697)
(0.00275873 0.00587664 0.00555552)
(0.00400475 0.00531441 0.00583692)
(0.00492875 0.00465709 0.00609744)
(0.00585253 0.00399688 0.00629397)
(0.00704278 0.00315801 0.00665919)
(0.00813167 0.00103197 0.00725519)
(0.0079919 -0.00347097 0.00760301)
(0.00674948 -0.0115058 0.00761074)
(0.00266918 -0.024465 0.00717287)
(0.00200398 -0.0406977 0.00507651)
(-0.000170558 -0.0340883 -0.00331019)
(0.00262915 -0.0256834 0.00262915)
(-0.00160999 -0.0157298 0.00480575)
(-0.00218503 -0.00769485 0.00541254)
(-0.00233913 -0.00239735 0.00559174)
(-0.00154151 -0.000247348 0.00554699)
(-0.000974413 0.00129845 0.00568279)
(-0.000245895 0.00301133 0.00600996)
(0.000664703 0.00441533 0.00604749)
(0.0017977 0.00465853 0.00593438)
(0.00315242 0.00431244 0.00589513)
(0.00464586 0.00382175 0.0058759)
(0.00600812 0.00318366 0.00584871)
(0.00727985 0.00238031 0.00581008)
(0.00850197 0.00119621 0.00576982)
(0.00936562 -0.00106032 0.00569325)
(0.00905283 -0.0050958 0.00588164)
(0.0078094 -0.0121935 0.00603656)
(0.00352114 -0.0234841 0.00566372)
(0.0028389 -0.0374659 0.00360164)
(-0.0018396 -0.0301435 -0.00505812)
(0.000291943 -0.0219192 0.000291943)
(-0.00439057 -0.0144481 0.00189109)
(-0.00514763 -0.00882306 0.00168909)
(-0.00542066 -0.00531742 0.000918368)
(-0.0047345 -0.00379442 0.000128614)
(-0.00344062 -0.00236306 -0.000118436)
(-0.00176737 -0.00038213 0.000568168)
(0.000210033 0.00248213 0.00227103)
(0.00192688 0.00410531 0.00334641)
(0.00363312 0.00351592 0.00322965)
(0.00553988 0.00223833 0.0025277)
(0.0074684 0.000879001 0.00180079)
(0.0093001 -0.000432169 0.0012268)
(0.0108569 -0.00175188 0.00100047)
(0.0117013 -0.00345068 0.00134311)
(0.0113511 -0.00645566 0.00213668)
(0.00990819 -0.0119591 0.00291161)
(0.00525772 -0.0208116 0.00289117)
(0.00423145 -0.0319209 0.00109046)
(-0.00486427 -0.0223978 -0.00823871)
(-0.00502481 -0.0164182 -0.00502481)
(-0.00938149 -0.0120046 -0.00450408)
(-0.0100294 -0.00955082 -0.0051388)
(-0.00952441 -0.00834323 -0.0060539)
(-0.00804178 -0.00803363 -0.00690472)
(-0.00590948 -0.0078882 -0.00722902)
(-0.00334986 -0.00742701 -0.00695051)
(-0.000507787 -0.00664638 -0.00597606)
(0.00212136 -0.00620646 -0.00459754)
(0.00442826 -0.00643712 -0.00500351)
(0.00705052 -0.0067982 -0.00567308)
(0.00966109 -0.00690481 -0.00601697)
(0.0119956 -0.00686872 -0.00608049)
(0.0139327 -0.00685428 -0.00584666)
(0.0152121 -0.00720659 -0.00518941)
(0.0154126 -0.00838674 -0.00419135)
(0.0141969 -0.0109238 -0.00314422)
(0.00922966 -0.0157061 -0.00246573)
(0.00691768 -0.0232381 -0.00312944)
(-0.0100891 -0.0124864 -0.0139709)
(-0.0147727 -0.00739466 -0.0147727)
(-0.019801 -0.0047032 -0.0171214)
(-0.0208788 -0.00336908 -0.0195979)
(-0.0202733 -0.00255186 -0.0220068)
(-0.0183025 -0.00180472 -0.0240017)
(-0.0153082 -0.000909816 -0.0255631)
(-0.0112145 0.000146525 -0.0266189)
(-0.0062266 0.00140535 -0.0270157)
(0.000519333 0.00276472 -0.0262525)
(0.00734092 0.00172232 -0.0259685)
(0.0123732 0.000630271 -0.0256901)
(0.0167947 -0.000231303 -0.0247153)
(0.0202904 -0.000915931 -0.0233032)
(0.0228647 -0.00149018 -0.0216139)
(0.0244804 -0.00205098 -0.0196661)
(0.0247939 -0.00279228 -0.0173862)
(0.0232803 -0.00412471 -0.0148129)
(0.0177007 -0.00693722 -0.0119468)
(0.0118699 -0.0126555 -0.00933803)
(0.00658767 -0.0110344 0.0210453)
(0.0125786 -0.00753342 0.0196953)
(0.0163893 -0.00354414 0.0163893)
(0.0148593 0.00085085 0.012291)
(0.00735867 0.00635352 0.0089135)
(-0.0067317 0.00158514 0.00298091)
(-0.00130037 -0.00197663 -0.000616285)
(-0.000890258 -0.000772155 -0.0013826)
(0.000219226 -0.000416062 -0.00133228)
(0.000222869 -0.000782545 -0.00116992)
(0.00031038 -0.00126253 -0.000481123)
(0.00088184 -0.00107044 0.00104205)
(-0.00201015 0.00359215 0.00451342)
(-0.0108142 0.00444713 0.00545068)
(-0.0188701 0.00177086 0.00575305)
(-0.0250778 -0.00107748 0.00666041)
(-0.0282558 -0.00393413 0.00826943)
(-0.0271779 -0.00749327 0.0103616)
(-0.0213067 -0.012399 0.012438)
(-0.0113128 -0.0195317 0.0135696)
(0.00326067 -0.0124385 0.0102466)
(0.0073103 -0.00775118 0.0112876)
(0.00979108 -7.80587e-05 0.00979108)
(0.00998146 0.0079618 0.00761899)
(0.00742842 0.0130763 0.00681389)
(0.00190117 0.00641747 0.00476015)
(0.00107226 -0.00134391 0.000855736)
(-0.00148724 -0.00121748 -0.00225246)
(-0.000557211 -0.000256482 -0.00322429)
(-0.00191441 -4.57709e-05 -0.00249496)
(-0.00362178 -0.000207762 -0.000828461)
(-0.005765 0.0012278 0.00104294)
(-0.00586053 0.00567358 0.00266922)
(-0.0079413 0.00948706 0.00359298)
(-0.0110623 0.00887718 0.00319469)
(-0.0146877 0.00576208 0.0031096)
(-0.0174284 0.000456844 0.00424016)
(-0.0169034 -0.0067092 0.00644151)
(-0.0133621 -0.0156426 0.00812385)
(-0.00571986 -0.0278821 0.00829715)
(0.00250646 -0.0183526 0.00252466)
(0.00580211 -0.0137523 0.00631096)
(0.00731744 -0.0056798 0.00731744)
(0.00878279 0.0053855 0.00672626)
(0.00869932 0.0129619 0.00622999)
(0.00657711 0.0079922 0.00520821)
(0.00488209 0.00246501 0.00339502)
(0.00116925 0.000252428 0.000795733)
(-0.000588243 0.000340597 -0.00264757)
(-0.00212577 0.000845621 -0.00298578)
(-0.00420311 0.00046037 -0.00169076)
(-0.00618533 0.00103212 -7.71019e-05)
(-0.00670745 0.00478759 0.00135326)
(-0.0064536 0.0094941 0.0023687)
(-0.0066727 0.0100334 0.0024245)
(-0.00792254 0.00647791 0.00263407)
(-0.00880388 -0.000639336 0.00418332)
(-0.00875624 -0.00954702 0.00652557)
(-0.00782192 -0.0212293 0.00732989)
(-0.00282561 -0.0359521 0.00582434)
(0.00233966 -0.0212462 -0.00195691)
(0.00595584 -0.0157729 0.00354489)
(0.00639951 -0.00763787 0.00639951)
(0.00732495 0.00323468 0.00698445)
(0.00872976 0.0110521 0.00691717)
(0.00841664 0.0082949 0.00659687)
(0.00720773 0.00453442 0.00572879)
(0.00453005 0.00348695 0.0041241)
(0.00175902 0.00341958 0.00108771)
(-0.000308229 0.00298562 -0.00176394)
(-0.00226176 0.00241494 -0.00155893)
(-0.00437512 0.00233591 -5.08383e-05)
(-0.00548208 0.00419494 0.0012159)
(-0.00477688 0.00806788 0.00222465)
(-0.00332579 0.0101193 0.00297069)
(-0.00238192 0.00839797 0.00422199)
(-0.00157116 0.00297005 0.00681389)
(-0.00259588 -0.00771901 0.0082802)
(-0.00416803 -0.02199 0.0078801)
(-0.00114923 -0.0385616 0.00452345)
(0.0017671 -0.0244457 -0.00464954)
(0.00615965 -0.0167243 0.00178912)
(0.00567103 -0.00859024 0.00567103)
(0.00567377 0.00134161 0.00738627)
(0.00701885 0.00876222 0.00800634)
(0.00741678 0.00800683 0.00784169)
(0.0063842 0.00601596 0.00718493)
(0.00437334 0.0056662 0.00589909)
(0.00231379 0.00592033 0.00368739)
(0.000875303 0.00561836 0.00102652)
(1.16827e-06 0.00505883 0.00033475)
(-0.00110674 0.0047165 0.00156582)
(-0.00211808 0.00508186 0.0025557)
(-0.00184676 0.00698116 0.00322965)
(-0.000166181 0.00897354 0.00425323)
(0.00159061 0.00803556 0.00609245)
(0.00234027 0.00346005 0.00846857)
(0.00160374 -0.00594799 0.00939383)
(-0.00182737 -0.0212713 0.00813232)
(1.9854e-05 -0.0385993 0.00328206)
(0.000659923 -0.0268041 -0.00639986)
(0.00589604 -0.0166556 0.000339271)
(0.00459597 -0.00827655 0.00459597)
(0.00419582 0.000812484 0.00665298)
(0.00475589 0.00739547 0.00769837)
(0.00517768 0.00777702 0.0074477)
(0.00436296 0.00685235 0.00675547)
(0.00310645 0.00695964 0.00581685)
(0.00200151 0.00746555 0.004449)
(0.00137728 0.00741912 0.00271927)
(0.00133906 0.00706201 0.00192566)
(0.00131772 0.00676327 0.00246322)
(0.00110531 0.00661638 0.00311211)
(0.00139876 0.0070997 0.00362479)
(0.0026747 0.00802405 0.00460557)
(0.00415199 0.00729822 0.00631079)
(0.00441253 0.00340154 0.00814999)
(0.00368246 -0.00521608 0.0087805)
(-0.000318247 -0.019613 0.00728086)
(0.00107055 -0.0368974 0.00160807)
(-0.000839205 -0.0277569 -0.0080936)
(0.00480575 -0.0157298 -0.00160999)
(0.00280394 -0.00727961 0.00280394)
(0.00246769 0.00038288 0.00481294)
(0.00240763 0.00591904 0.00558027)
(0.00282737 0.00675114 0.00518585)
(0.00254805 0.00636578 0.00456957)
(0.00210387 0.00664626 0.00413859)
(0.00180681 0.00729894 0.00349237)
(0.00175586 0.00748393 0.00254099)
(0.00212608 0.00727398 0.00191765)
(0.00269459 0.00697031 0.0020378)
(0.00315398 0.00667297 0.00237844)
(0.00376597 0.00661236 0.00270748)
(0.00482495 0.00682412 0.00340576)
(0.00588434 0.00606959 0.00465609)
(0.00579211 0.00259025 0.00618295)
(0.00495737 -0.00496459 0.00668426)
(0.000995588 -0.0180545 0.00486257)
(0.00236454 -0.0337112 -0.000641228)
(-0.00283642 -0.0260544 -0.0102587)
(0.00189109 -0.0144481 -0.00439057)
(-0.000730949 -0.00519375 -0.000730949)
(1.67683e-05 0.00225857 0.00102788)
(0.000230348 0.0062518 0.00136223)
(0.00102356 0.00701647 0.000731581)
(0.00139256 0.0071167 0.000202695)
(0.00166273 0.007779 0.000278076)
(0.00191264 0.00856608 0.000719051)
(0.00220689 0.00904323 0.000926415)
(0.00274954 0.00888243 0.00058882)
(0.00360318 0.00849386 0.000262536)
(0.00450051 0.0080026 0.000101357)
(0.00541478 0.00753164 7.59145e-05)
(0.00644009 0.00716023 0.000431286)
(0.00732013 0.00626363 0.00134889)
(0.00734085 0.00328001 0.00259342)
(0.00695498 -0.00390719 0.00267282)
(0.00320388 -0.0154779 0.000899262)
(0.00424189 -0.0288753 -0.00358557)
(-0.00608144 -0.0201977 -0.0135199)
(-0.00450408 -0.0120046 -0.00938149)
(-0.00709106 -0.0059741 -0.00709106)
(-0.00608093 -0.00233746 -0.00632955)
(-0.00405492 -0.000330698 -0.00551773)
(-0.0023848 -0.000539965 -0.00621382)
(-0.00102744 -0.000992401 -0.00669292)
(0.000197716 -0.000457551 -0.00646631)
(0.00144624 0.000830912 -0.00565365)
(0.00250954 0.00186915 -0.0048225)
(0.0036536 0.00147577 -0.00477875)
(0.00504415 0.000619004 -0.0049859)
(0.00648736 0.000200779 -0.00512509)
(0.00788759 8.89042e-05 -0.00517316)
(0.00931724 0.000189512 -0.00495437)
(0.0106067 -1.2501e-05 -0.00427515)
(0.0116151 -0.00176911 -0.00394549)
(0.0117856 -0.00551689 -0.0040929)
(0.00810446 -0.0120269 -0.00515271)
(0.00742415 -0.0213604 -0.00758215)
(-0.012213 -0.01084 -0.0191087)
(-0.0171214 -0.0047032 -0.019801)
(-0.0219646 -0.00159873 -0.0219646)
(-0.0224645 -3.42592e-05 -0.0243489)
(-0.0214317 0.000965373 -0.0268777)
(-0.0193348 0.00187978 -0.0292884)
(-0.016517 0.00300746 -0.0313429)
(-0.0125239 0.00431537 -0.0326814)
(-0.00728085 0.0058044 -0.0330371)
(-3.46915e-05 0.0074727 -0.031996)
(0.00791525 0.00618308 -0.0317079)
(0.0133556 0.00475031 -0.0313534)
(0.01793 0.00358761 -0.0300249)
(0.0213306 0.002636 -0.0281209)
(0.0237447 0.00184363 -0.025905)
(0.0253868 0.00112496 -0.0235019)
(0.0259901 0.000222601 -0.0209728)
(0.0248585 -0.00135282 -0.0183241)
(0.0193434 -0.00458843 -0.0156062)
(0.0133836 -0.0111107 -0.0134941)
(0.00572222 -0.00435953 0.0200842)
(0.00980799 -0.00202432 0.0185486)
(0.012291 0.00085085 0.0148593)
(0.0105516 0.00448394 0.0105516)
(0.00349418 0.00798445 0.00713042)
(-0.00624569 9.83164e-05 0.00152242)
(-0.000301989 -0.00305333 -0.00112187)
(0.00032734 -0.00117574 -0.00134468)
(0.000992116 -0.000449143 -0.00109407)
(0.000354539 -0.0008189 -0.000515222)
(-0.000290128 -0.00137245 0.000460235)
(0.000154376 -0.000800234 0.00210893)
(-0.00298488 0.00390594 0.00463004)
(-0.0108844 0.00467945 0.00549011)
(-0.0179211 0.00235156 0.00630431)
(-0.0232746 -0.000241368 0.00800677)
(-0.0259183 -0.0028918 0.0104992)
(-0.0246524 -0.00600516 0.0132228)
(-0.019161 -0.0101532 0.0157721)
(-0.0104225 -0.0160549 0.0167227)
(0.00231709 0.00223757 0.0102249)
(0.00511839 0.00430266 0.0112672)
(0.00761899 0.0079618 0.00998146)
(0.00795587 0.0119342 0.00795587)
(0.00586999 0.01378 0.00698452)
(0.0025469 0.00544397 0.00470453)
(0.00106609 -0.00241297 0.000469206)
(-0.000554414 -0.00181331 -0.00166146)
(8.69062e-05 -0.000456079 -0.00264507)
(-0.00195349 -0.000226055 -0.00160745)
(-0.00433755 -0.000269846 0.000229866)
(-0.00664059 0.00161509 0.00206489)
(-0.00700196 0.00620255 0.00342172)
(-0.00921023 0.00973136 0.00362101)
(-0.0121852 0.00926749 0.00310007)
(-0.0152589 0.00659432 0.0032635)
(-0.01718 0.0020238 0.00459172)
(-0.0165248 -0.00443837 0.00702655)
(-0.0127257 -0.0119892 0.00874051)
(-0.00554394 -0.0220816 0.00833366)
(0.00257722 -0.00252764 0.00342208)
(0.00476917 0.000358846 0.00765628)
(0.00672626 0.0053855 0.00878279)
(0.00799324 0.0117206 0.00799324)
(0.00788393 0.0147934 0.00729382)
(0.00650684 0.00784925 0.00576161)
(0.00454584 0.00154601 0.00348369)
(0.00101773 -0.00135222 0.000614178)
(-0.000406492 -0.000546771 -0.00234373)
(-0.0024276 0.00054159 -0.00217672)
(-0.00517235 0.000410244 -0.000654286)
(-0.00741874 0.00166055 0.00109885)
(-0.0080834 0.00599127 0.00224893)
(-0.00836774 0.0104788 0.00249964)
(-0.0092327 0.010698 0.00194267)
(-0.0107021 0.0071071 0.00190366)
(-0.0114593 0.00057235 0.00322369)
(-0.0106892 -0.00724523 0.00552008)
(-0.00855901 -0.0168137 0.00647269)
(-0.00297176 -0.0289661 0.00428382)
(0.00309955 -0.00952993 -0.00237197)
(0.00600398 -0.00200735 0.00350021)
(0.00698445 0.00323468 0.00732495)
(0.00815291 0.00984092 0.00815291)
(0.0089931 0.0136063 0.00793373)
(0.00858678 0.00909111 0.00709614)
(0.00705743 0.00421521 0.00575994)
(0.00444265 0.00211924 0.00393374)
(0.00185677 0.00180286 0.000884812)
(-0.000613849 0.00205802 -0.0014675)
(-0.00363765 0.00180822 -0.000897803)
(-0.00634179 0.00236016 0.00063943)
(-0.00742219 0.00542083 0.00171963)
(-0.00706447 0.00980311 0.00218041)
(-0.00648343 0.0114437 0.0021592)
(-0.00640685 0.00922308 0.00281951)
(-0.00612107 0.00360062 0.00500616)
(-0.00596618 -0.00571802 0.0069861)
(-0.00573663 -0.0174065 0.00669637)
(-0.00133502 -0.0315664 0.00244189)
(0.00253573 -0.0156797 -0.00530872)
(0.00715601 -0.00459473 0.00094593)
(0.00738627 0.00134161 0.00567377)
(0.00783736 0.00779956 0.00783736)
(0.00877517 0.0119464 0.00841196)
(0.00878791 0.00956033 0.00808862)
(0.00751761 0.00613556 0.00721693)
(0.00532372 0.00450702 0.00579328)
(0.00299254 0.00429296 0.00338785)
(0.00106346 0.00422562 0.000543436)
(-0.00145043 0.00373278 -7.50504e-05)
(-0.00386277 0.00372259 0.0011835)
(-0.00524641 0.00533736 0.00215322)
(-0.00500013 0.00867489 0.00267232)
(-0.0037689 0.0110749 0.00317389)
(-0.00263391 0.0101643 0.0045855)
(-0.00178614 0.00551042 0.00728253)
(-0.00170698 -0.00382594 0.00880323)
(-0.00354101 -0.0167464 0.00719743)
(1.88744e-05 -0.032429 0.00119225)
(0.000704474 -0.0204481 -0.00726885)
(0.00692277 -0.00623084 -0.00046928)
(0.00665298 0.000812484 0.00419582)
(0.00676097 0.00693136 0.00676097)
(0.00741666 0.0109059 0.0079272)
(0.00758751 0.00983219 0.00789546)
(0.00664948 0.00751649 0.00727565)
(0.00504975 0.00637275 0.00625455)
(0.00336737 0.00627156 0.00463337)
(0.00195201 0.00625286 0.00249272)
(0.00048121 0.00587956 0.00141)
(-0.00126106 0.00561029 0.00207359)
(-0.00244902 0.00612671 0.00281555)
(-0.00245076 0.00799244 0.00325001)
(-0.00122532 0.0102148 0.00393537)
(0.000383795 0.0102226 0.00562355)
(0.00120613 0.00660205 0.00811046)
(0.00154781 -0.00166384 0.00926497)
(-0.00171533 -0.0153072 0.00678052)
(0.00134248 -0.0319474 -0.000234442)
(-0.00142403 -0.0235447 -0.00931117)
(0.00541254 -0.00769485 -0.00218503)
(0.00481294 0.00038288 0.00246769)
(0.00482659 0.00638917 0.00482659)
(0.00536356 0.00983887 0.00613216)
(0.00583345 0.0092698 0.00626509)
(0.0054973 0.00755026 0.00595622)
(0.00462497 0.00666495 0.00552328)
(0.0036054 0.00667754 0.00477793)
(0.00262199 0.00681776 0.00358976)
(0.0017078 0.00658679 0.00267062)
(0.000774514 0.00624015 0.00277977)
(6.43919e-06 0.00619752 0.00313872)
(-4.67047e-05 0.00707844 0.00331929)
(0.00103156 0.0087585 0.00385651)
(0.00261107 0.00914233 0.00522481)
(0.00338002 0.00628485 0.00712145)
(0.00357869 -0.000849577 0.0078686)
(0.000253024 -0.0135441 0.00488307)
(0.00289661 -0.0301919 -0.00206701)
(-0.00380903 -0.0236024 -0.0117454)
(0.00168909 -0.00882306 -0.00514763)
(0.00102788 0.00225857 1.67683e-05)
(0.00193078 0.00722962 0.00193078)
(0.00279082 0.00933193 0.00295714)
(0.00389308 0.00885508 0.00304667)
(0.00437947 0.00793162 0.00295086)
(0.00434151 0.00775375 0.00303093)
(0.00398948 0.00820844 0.00319872)
(0.00334288 0.00872155 0.0031082)
(0.00269105 0.00849593 0.0026251)
(0.00235215 0.00797071 0.00239286)
(0.00223101 0.00745662 0.00232376)
(0.00240762 0.00733104 0.00224255)
(0.00326765 0.00791645 0.00249521)
(0.00466484 0.00823249 0.0033941)
(0.00546473 0.00638276 0.00462034)
(0.00591613 0.000544598 0.00452653)
(0.00304679 -0.0116235 0.00127783)
(0.00496741 -0.0267762 -0.00468535)
(-0.00731928 -0.0193289 -0.0150748)
(-0.0051388 -0.00955082 -0.0100294)
(-0.00632955 -0.00233746 -0.00608093)
(-0.00422301 0.00198109 -0.00422301)
(-0.00234945 0.00303072 -0.00371422)
(-0.000230726 0.00179351 -0.00406833)
(0.00092835 0.000618172 -0.00462829)
(0.00166564 0.000525423 -0.00464113)
(0.00253856 0.00136323 -0.00398478)
(0.00315144 0.00236494 -0.00305944)
(0.00376902 0.00194183 -0.00304357)
(0.00469186 0.000936172 -0.00316585)
(0.00560683 0.000594962 -0.00317673)
(0.00644346 0.000768106 -0.00310912)
(0.00750957 0.00146747 -0.0027713)
(0.00902797 0.00218929 -0.00203843)
(0.0101582 0.00130492 -0.00119074)
(0.0111268 -0.0027759 -0.00200995)
(0.00828355 -0.0101188 -0.00471775)
(0.00834481 -0.0205576 -0.00855975)
(-0.0141563 -0.0101982 -0.0204795)
(-0.0195979 -0.00336908 -0.0208788)
(-0.0243489 -3.42592e-05 -0.0224645)
(-0.024078 0.0016796 -0.024078)
(-0.0228078 0.00274023 -0.0264787)
(-0.0210307 0.0037667 -0.0295636)
(-0.0185509 0.00511976 -0.0325286)
(-0.0146872 0.00672739 -0.034866)
(-0.0090516 0.00860647 -0.0361429)
(-0.000731241 0.0108444 -0.0356813)
(0.00913118 0.00919501 -0.0349415)
(0.01523 0.00731453 -0.033862)
(0.020002 0.00575842 -0.0316631)
(0.0232099 0.00446849 -0.0289004)
(0.0252558 0.00341041 -0.0258966)
(0.0265666 0.00255041 -0.0228376)
(0.0272231 0.00155788 -0.020151)
(0.0265591 -0.000147158 -0.0179701)
(0.0210842 -0.00355047 -0.0157998)
(0.0148524 -0.0105633 -0.014275)
(0.00467717 0.00287119 0.00985829)
(0.00726398 0.00437358 0.0100076)
(0.0089135 0.00635352 0.00735867)
(0.00713042 0.00798445 0.00349418)
(0.0020757 0.0083146 0.0020757)
(-0.00369042 -0.0023408 -0.000411479)
(0.00129152 -0.00399966 -0.000986291)
(0.00179752 -0.00179467 -0.000490925)
(0.00189835 -0.000738126 -0.000120309)
(0.00065468 -0.000889141 0.00102564)
(-0.000678818 -0.00141911 0.0018695)
(-0.000403212 -0.00113943 0.00304364)
(-0.00265751 0.00347223 0.00417952)
(-0.00958564 0.00528751 0.00437663)
(-0.0156623 0.00367785 0.00516723)
(-0.0201253 0.00151561 0.00726762)
(-0.0223062 -0.000812249 0.0104228)
(-0.0212487 -0.00336097 0.0138288)
(-0.0163346 -0.00658163 0.016463)
(-0.00925789 -0.0111372 0.0170647)
(0.00284254 0.0112852 0.00645978)
(0.00474088 0.0119267 0.00799837)