/*--------------------------------*- C++ -*----------------------------------*\
  =========                 |
  \\      /  F ield         | OpenFOAM: The Open Source CFD Toolbox
   \\    /   O peration     | Website:  https://openfoam.org
    \\  /    A nd           | Version:  8
     \\/     M anipulation  |
\*---------------------------------------------------------------------------*/
FoamFile
{
    version     2.0;
    format      ascii;
    class       volScalarField;
    location    "1200";
    object      alphat;
}
// * * * * * * * * * * * * * * * * * * * * * * * * * * * * * * * * * * * * * //

dimensions      [1 -1 -1 0 0 0 0];

internalField   nonuniform List<scalar> 
4000
(
0.000355633
0.000348593
0.000337077
0.000322515
0.000305217
0.000238931
0.000149496
0.000130485
0.000124589
0.000121724
0.000120451
0.000119565
0.000127789
0.000186637
0.000264767
0.000287663
0.000298882
0.000307399
0.000317231
0.000326503
0.000369748
0.00036155
0.000342406
0.000313173
0.000287386
0.000245268
0.000170174
0.000149001
0.000145052
0.000144067
0.000144197
0.000146372
0.000163883
0.000200753
0.00024415
0.000263731
0.000279338
0.000302864
0.000325377
0.000340122
0.000377714
0.000372538
0.000353226
0.000318966
0.000268867
0.000244989
0.000207558
0.000188999
0.000163756
0.000151221
0.000155238
0.000161274
0.000178489
0.000196499
0.000219222
0.000236735
0.000264177
0.000307737
0.000335142
0.000347753
0.000381999
0.000380957
0.000366799
0.000342476
0.000310751
0.000261066
0.000266865
0.000256708
0.000220863
0.000198533
0.000211339
0.000228599
0.000242653
0.000254556
0.000264114
0.000281194
0.000302221
0.000326077
0.00034508
0.000351773
0.0003851
0.000388789
0.000383126
0.000371659
0.000356409
0.0003413
0.000332918
0.000319194
0.000296775
0.000287747
0.000292955
0.000301094
0.000309015
0.000316241
0.000323099
0.000330721
0.00033982
0.000349575
0.000356551
0.000355057
0.000388036
0.000396716
0.000398395
0.000396202
0.000391746
0.000385098
0.000378304
0.00036789
0.00035066
0.000341868
0.000344027
0.00034887
0.000354003
0.000358626
0.000362487
0.000365595
0.000367765
0.000368713
0.00036669
0.000357771
0.000391216
0.000404803
0.000412626
0.000417016
0.00041929
0.000418764
0.000414695
0.000406292
0.00039148
0.000381468
0.000381796
0.000384877
0.00038835
0.000391166
0.000392584
0.000392129
0.000389354
0.000384151
0.000375425
0.000360042
0.000395118
0.000413923
0.000427176
0.000436785
0.000443748
0.000447388
0.000446457
0.000440046
0.000426456
0.000414732
0.000413856
0.000415773
0.000417997
0.000419243
0.000418495
0.000414946
0.000408031
0.000397902
0.000383721
0.000362411
0.000400595
0.00042527
0.000443867
0.000457513
0.000467577
0.000474084
0.00047629
0.000472367
0.00046099
0.000447334
0.000445477
0.000446319
0.00044711
0.000446481
0.000443313
0.000436752
0.000426474
0.000412503
0.000393296
0.000366051
0.000408602
0.000437483
0.000459901
0.000475837
0.00048779
0.00049635
0.000501604
0.000502939
0.000499799
0.000489188
0.000484809
0.00048085
0.000476131
0.00047026
0.000462872
0.000453463
0.000441383
0.000425603
0.000403361
0.000371993
0.000348593
0.000352828
0.000345198
0.000330159
0.000311523
0.000263707
0.000169417
0.00015243
0.000147961
0.000144965
0.000145316
0.000147507
0.000159824
0.000219549
0.000276695
0.000298964
0.000311968
0.000322718
0.000331951
0.000329977
0.00036155
0.00048857
0.000508159
0.000468861
0.000402334
0.000333555
0.000257096
0.000269442
0.000310289
0.000341688
0.000337335
0.000287653
0.00025342
0.000269122
0.000321392
0.000373654
0.000412342
0.000445436
0.000460079
0.000344604
0.000372538
0.000549971
0.000595765
0.000557004
0.000446205
0.000355268
0.000304081
0.000291367
0.000310346
0.000372396
0.000395694
0.000339687
0.000295851
0.000297233
0.000321521
0.000356502
0.000409634
0.0004946
0.000523307
0.000353249
0.000380957
0.000593186
0.000664601
0.000630235
0.000490999
0.000383047
0.000346076
0.000314355
0.000289773
0.00028422
0.000291338
0.000288149
0.0002932
0.00031112
0.00033522
0.000361434
0.00042488
0.000546846
0.000573036
0.000358188
0.000388789
0.000622663
0.000714504
0.00070683
0.000573248
0.000451785
0.000405189
0.000359437
0.000313524
0.00029052
0.000292182
0.000301787
0.000317315
0.000340916
0.000370014
0.000415096
0.000502888
0.000595111
0.000600392
0.000361979
0.000396716
0.000638138
0.000743171
0.000775108
0.000728976
0.000588303
0.000522264
0.000455106
0.000387883
0.00035664
0.000360009
0.000376443
0.000400069
0.000432496
0.000484253
0.00054921
0.000608185
0.000643395
0.000603624
0.000365657
0.000404803
0.000642068
0.00075065
0.000819028
0.0008637
0.000844181
0.000780057
0.000682778
0.000570804
0.000517432
0.000526273
0.000571825
0.000624453
0.000672029
0.000699971
0.000710481
0.000701895
0.000671567
0.00059557
0.000369525
0.000413923
0.000632668
0.00072812
0.00080611
0.000868514
0.000892622
0.000873621
0.000831322
0.000779359
0.000748669
0.000736571
0.000741522
0.000757736
0.00077433
0.000780192
0.00076758
0.000729427
0.000668148
0.000577845
0.000374803
0.00042527
0.000591967
0.000680053
0.00075394
0.00080806
0.000834892
0.000837296
0.000808837
0.000757143
0.000714732
0.000698812
0.000715346
0.000741914
0.000762392
0.00076361
0.00073853
0.000687805
0.000620169
0.000542356
0.000382189
0.000437483
0.000468622
0.000493544
0.000512568
0.000528144
0.000540436
0.000548873
0.000551966
0.000548909
0.000537687
0.000530563
0.000524374
0.000517263
0.000508698
0.000498233
0.000485339
0.00046955
0.000450165
0.000424513
0.000390018
0.000337077
0.000345198
0.000340331
0.000327477
0.000310426
0.000271837
0.000180423
0.000160691
0.000159581
0.000158328
0.000160723
0.000163673
0.000176296
0.000235277
0.000283032
0.000304292
0.000317587
0.000328406
0.000335511
0.000328144
0.000342406
0.000508159
0.000551296
0.00051654
0.00043631
0.000355811
0.00027893
0.000294401
0.00036169
0.000420569
0.000418968
0.00035307
0.000296297
0.000304005
0.000361708
0.000430028
0.000483267
0.000515069
0.000506706
0.000341877
0.000353226
0.000595765
0.000674847
0.000651076
0.000536142
0.000410531
0.000341981
0.000340266
0.000376206
0.000462382
0.000488679
0.000416317
0.000364425
0.000352578
0.000383579
0.000447852
0.000523455
0.000601595
0.000596124
0.000351427
0.000366799
0.000664601
0.000770463
0.000748881
0.000606604
0.000461886
0.000395659
0.000368971
0.000360245
0.000381953
0.000441757
0.000413461
0.000371315
0.000369165
0.000391778
0.000438126
0.000538125
0.000679454
0.000668741
0.000357703
0.000383126
0.000714504
0.000836364
0.00082513
0.000672251
0.000512564
0.000437892
0.000391734
0.000354343
0.000335646
0.000339654
0.000340132
0.000341635
0.000359678
0.00038822
0.000437075
0.00056641
0.000735533
0.000714662
0.000362875
0.000398395
0.000743171
0.000875033
0.000882002
0.000759692
0.000593562
0.000507939
0.00044681
0.000390027
0.000354254
0.000349331
0.000358215
0.000372113
0.000398806
0.000439448
0.000501679
0.000623226
0.000766701
0.000728559
0.000368197
0.000412626
0.00075065
0.000889127
0.000925245
0.000855107
0.000734975
0.000656062
0.00058725
0.000511737
0.000462178
0.000459895
0.000483651
0.000512361
0.000543939
0.000576486
0.000619657
0.00069997
0.000775568
0.000711885
0.000374995
0.000427176
0.00072812
0.000889487
0.000992811
0.00100178
0.00093993
0.000880549
0.000809545
0.000721309
0.000660183
0.000660167
0.000697581
0.000743079
0.000782297
0.000806956
0.000820617
0.000825197
0.000778758
0.000670366
0.000384095
0.000443867
0.000680053
0.000868685
0.00103277
0.00113426
0.00114939
0.00113724
0.00107083
0.000961965
0.000880694
0.000887658
0.000942591
0.00100629
0.00105419
0.00106205
0.00101829
0.000928269
0.000786497
0.000625806
0.000395685
0.000459901
0.000493544
0.000520429
0.000541934
0.000560573
0.000576374
0.000587957
0.000593067
0.000590416
0.000578912
0.000568862
0.000560729
0.000551559
0.000540614
0.000527378
0.000511394
0.000492494
0.000470392
0.00044262
0.00040634
0.000322515
0.000330159
0.000327477
0.000318105
0.000302312
0.000265071
0.000182338
0.000164338
0.000166801
0.000168135
0.000172066
0.000174106
0.000182913
0.000239177
0.000282996
0.00030326
0.00031579
0.000325283
0.000329915
0.000320333
0.000313173
0.000468861
0.00051654
0.000483387
0.000417416
0.000345533
0.000281595
0.000306877
0.000404196
0.000490974
0.000492176
0.000403685
0.000322558
0.000320376
0.000377607
0.000451354
0.000512624
0.000535484
0.000508954
0.000330071
0.000318966
0.000557004
0.000651076
0.000632112
0.000529448
0.000413112
0.000353412
0.000363914
0.000421121
0.00054332
0.0005824
0.00049191
0.000409853
0.000388479
0.000426221
0.000509196
0.000592682
0.000648977
0.000616942
0.000340801
0.000342476
0.000630235
0.000748881
0.00074166
0.000626082
0.000487895
0.000421735
0.00040931
0.000424606
0.000491123
0.000596646
0.00053438
0.000449842
0.000428351
0.000453495
0.000527213
0.000642736
0.000748625
0.000712462
0.000350452
0.000371659
0.00070683
0.00082513
0.000823018
0.00070248
0.00055599
0.000478622
0.000441654
0.000421675
0.000432744
0.000476932
0.000463883
0.000418563
0.000420901
0.000450495
0.000516979
0.000658534
0.000815935
0.000782555
0.000359744
0.000396202
0.000775108
0.000882002
0.000879507
0.00077047
0.00062641
0.00054065
0.000487601
0.000447782
0.000432181
0.000445678
0.000444652
0.000424014
0.000431957
0.000462933
0.000525313
0.000673247
0.000853961
0.000818791
0.00036891
0.000417016
0.000819028
0.000925245
0.000933988
0.000851888
0.000736578
0.000660566
0.000606267
0.000557212
0.000528896
0.000538422
0.000553992
0.000553514
0.000555517
0.000566406
0.00060334
0.000718737
0.000862696
0.000808424
0.000378825
0.000436785
0.00080611
0.000992811
0.00104311
0.00100877
0.000947928
0.000898815
0.000845218
0.000773972
0.000718583
0.000722168
0.000758206
0.000794353
0.00081796
0.000821443
0.000820109
0.000859425
0.000867753
0.000744966
0.000390856
0.000457513
0.00075394
0.00103277
0.00118113
0.00122712
0.00125926
0.00126542
0.00120309
0.00108799
0.000991579
0.000990719
0.00104974
0.0011223
0.00117421
0.00118002
0.00113481
0.00107824
0.000925266
0.000689657
0.000405513
0.000475837
0.000512568
0.000541934
0.000566545
0.0005893
0.000609247
0.000624516
0.00063301
0.000634061
0.000625714
0.000609647
0.000596969
0.000584177
0.000570045
0.000553579
0.000533895
0.000511185
0.000486132
0.000456117
0.000417873
0.000305217
0.000311523
0.000310426
0.000302312
0.000286204
0.00024251
0.000173688
0.000166055
0.00017132
0.000176852
0.000180728
0.000179953
0.000183579
0.000232954
0.000276972
0.000296687
0.000308149
0.000315356
0.000317602
0.000307511
0.000287386
0.000402334
0.00043631
0.000417416
0.000371787
0.000315633
0.000281239
0.000323649
0.000455065
0.000567189
0.000551518
0.000434706
0.000338143
0.000323175
0.000371088
0.000439187
0.000496007
0.000515391
0.000479521
0.000310171
0.000268867
0.000446205
0.000536142
0.000529448
0.000457863
0.00038194
0.000354961
0.000384032
0.000474105
0.000646197
0.000669381
0.000534981
0.000435287
0.000407584
0.000441957
0.000525092
0.000603544
0.000641881
0.0005959
0.000323065
0.000310751
0.000490999
0.000606604
0.000626082
0.000552365
0.000461574
0.000427068
0.000436679
0.000487665
0.000616201
0.000726911
0.000608373
0.000501541
0.000471674
0.000498256
0.000582345
0.00069132
0.000766336
0.000717658
0.000339627
0.000356409
0.000573248
0.000672251
0.00070248
0.000637234
0.000543095
0.000495634
0.000481649
0.000496075
0.000568659
0.000673761
0.00061887
0.000508493
0.0004911
0.000521262
0.000599964
0.000732516
0.000853724
0.000821748
0.000354766
0.000391746
0.000728976
0.000759692
0.00077047
0.000713651
0.000625013
0.000567742
0.00053563
0.000529086
0.000570701
0.000642604
0.000625212
0.00052756
0.000504516
0.000532138
0.000600713
0.000741536
0.000905009
0.000893032
0.000367875
0.00041929
0.0008637
0.000855107
0.000851888
0.000811389
0.000743599
0.000691478
0.000654606
0.000636872
0.000656646
0.000708281
0.000716686
0.0006561
0.000619641
0.000617409
0.000651959
0.000769448
0.00093231
0.000889873
0.000380882
0.000443748
0.000868514
0.00100178
0.00100877
0.000991601
0.000959137
0.00092795
0.000884308
0.000825096
0.00078918
0.000808091
0.000834138
0.000850056
0.000858056
0.000848911
0.000840457
0.000891266
0.000943452
0.000805608
0.000394925
0.000467577
0.00080806
0.00113426
0.00122712
0.00130169
0.00135793
0.00136687
0.00128484
0.00114866
0.00104176
0.00103744
0.00109812
0.00118542
0.00125226
0.00125882
0.00119664
0.00112148
0.001011
0.0007342
0.000411866
0.00048779
0.000528144
0.000560573
0.0005893
0.000616455
0.000640324
0.000659587
0.000672824
0.000679553
0.000676664
0.00065349
0.000634484
0.000616482
0.000597979
0.000577522
0.000553945
0.000527399
0.000498919
0.000466473
0.000426006
0.000238931
0.000263707
0.000271837
0.000265071
0.00024251
0.000186404
0.000160732
0.000166299
0.000175646
0.000186407
0.000187309
0.00018261
0.000181936
0.000216494
0.000265175
0.000285159
0.000295762
0.000300684
0.000300187
0.000290322
0.000245268
0.000333555
0.000355811
0.000345533
0.000315633
0.000284489
0.000295082
0.000351781
0.000513216
0.000619305
0.000577129
0.000447043
0.000347963
0.000320544
0.00034873
0.000403945
0.000448647
0.000463454
0.000421553
0.00028249
0.000244989
0.000355268
0.000410531
0.000413112
0.00038194
0.00035618
0.000363017
0.000412114
0.000549389
0.000718526
0.000696501
0.000546068
0.000443545
0.000412636
0.000430591
0.000495073
0.000554131
0.000571044
0.000517696
0.000300572
0.000261066
0.000383047
0.000461886
0.000487895
0.000461574
0.000431922
0.000432355
0.000468761
0.000568158
0.000723948
0.000774694
0.000633725
0.000523768
0.000492438
0.000510321
0.000578925
0.000660563
0.000706207
0.000656452
0.000327203
0.0003413
0.000451785
0.000512564
0.00055599
0.000543095
0.000511925
0.000501832
0.00051934
0.000585548
0.000700348
0.000792456
0.000694174
0.000565912
0.000539514
0.000565501
0.000636601
0.000742104
0.000828305
0.000809637
0.000348139
0.000385098
0.000588303
0.000593562
0.00062641
0.000625013
0.000597855
0.000578916
0.000581106
0.000624714
0.000708352
0.000796545
0.000743052
0.000610255
0.000571604
0.00059836
0.000665644
0.000782899
0.000909692
0.000936991
0.00036504
0.000418764
0.000844181
0.000734975
0.000736578
0.000743599
0.000727701
0.000708691
0.000701444
0.00072209
0.000777673
0.000849921
0.000824474
0.000725802
0.000675824
0.000678208
0.000719447
0.000821523
0.00096123
0.000946616
0.000380641
0.000447388
0.000892622
0.00093993
0.000947928
0.000959137
0.000960111
0.000950111
0.000921425
0.000882908
0.000876196
0.00090169
0.000890592
0.000876147
0.000877163
0.000872232
0.000872295
0.000926694
0.000985106
0.000848093
0.000395814
0.000474084
0.000834892
0.00114939
0.00125926
0.00135793
0.00141943
0.00140463
0.00130279
0.00117572
0.00109036
0.00107449
0.00110754
0.00119927
0.00128155
0.00129637
0.00123051
0.00114408
0.00105288
0.000753255
0.000414124
0.00049635
0.000540436
0.000576374
0.000609247
0.000640324
0.000668301
0.000692765
0.000713452
0.000729941
0.000736375
0.000703859
0.00067494
0.000649041
0.00062436
0.000598803
0.000570795
0.000540338
0.000508501
0.000473679
0.000431067
0.000149496
0.000169417
0.000180423
0.000182338
0.000173688
0.000160732
0.000160572
0.000165798
0.000182399
0.000198233
0.000193746
0.000184599
0.000181369
0.000194027
0.000246153
0.00026837
0.000278709
0.000282141
0.000279344
0.000269651
0.000170174
0.000257096
0.00027893
0.000281595
0.000281239
0.000295082
0.00032019
0.000405926
0.000557574
0.000626452
0.000569934
0.000450007
0.000357208
0.000323669
0.000321778
0.000357713
0.00038557
0.000386995
0.000346044
0.000237735
0.000207558
0.000304081
0.000341981
0.000353412
0.000354961
0.000363017
0.000391034
0.000467747
0.000617557
0.000709101
0.000660037
0.000538657
0.000445416
0.000411895
0.000405505
0.000435863
0.000462217
0.000449241
0.000386885
0.000277434
0.000266865
0.000346076
0.000395659
0.000421735
0.000427068
0.000432355
0.000458112
0.000527359
0.000645161
0.000760647
0.000726717
0.000618073
0.00052782
0.000495329
0.000493554
0.000523056
0.000554991
0.00055306
0.000505763
0.000313114
0.000332918
0.000405189
0.000437892
0.000478622
0.000495634
0.000501832
0.000522257
0.000578318
0.000669636
0.00080901
0.000786208
0.000680955
0.000587646
0.000559509
0.000571025
0.000609352
0.000663745
0.000705831
0.000718018
0.000339727
0.000378304
0.000522264
0.000507939
0.00054065
0.000567742
0.000578916
0.000596319
0.000639487
0.000712813
0.000874825
0.000853297
0.000733684
0.00064779
0.000612551
0.00063209
0.000679698
0.000755498
0.00084227
0.000924036
0.000360057
0.000414695
0.000780057
0.000656062
0.000660566
0.000691478
0.000708691
0.000724667
0.000753317
0.000815723
0.000978202
0.000946305
0.000819896
0.000752099
0.000712566
0.000720971
0.000759909
0.000835559
0.000935561
0.000963059
0.00037749
0.000446457
0.000873621
0.000880549
0.000898815
0.00092795
0.000950111
0.000962578
0.000968377
0.000991313
0.00108262
0.00100663
0.000895853
0.000869402
0.000873818
0.000880855
0.000892851
0.000945388
0.000988977
0.000859044
0.000393361
0.00047629
0.000837296
0.00113724
0.00126542
0.00136687
0.00140463
0.00136217
0.00128159
0.00124935
0.00124112
0.00116342
0.00109836
0.0011666
0.00125979
0.00128863
0.00123033
0.00113984
0.00103737
0.000745474
0.000412745
0.000501604
0.000548873
0.000587957
0.000624516
0.000659587
0.000692765
0.000724976
0.000757539
0.00079021
0.000810864
0.000765617
0.000720435
0.000682494
0.000649277
0.000617326
0.000584235
0.000549641
0.000514651
0.000477651
0.00043326
0.000130485
0.00015243
0.000160691
0.000164338
0.000166055
0.000166299
0.000165798
0.000173617
0.000193524
0.000211485
0.00020465
0.000191882
0.000184368
0.000185257
0.000215952
0.000244676
0.000255585
0.000257585
0.000251747
0.000235983
0.000149001
0.000269442
0.000294401
0.000306877
0.000323649
0.000351781
0.000405926
0.000483416
0.000581809
0.000588785
0.000533908
0.000467331
0.000385906
0.00033517
0.000307052
0.00031384
0.000325416
0.000315751
0.000275564
0.000207871
0.000188999
0.000291367
0.000340266
0.000363914
0.000384032
0.000412114
0.000467747
0.000551751
0.000662405
0.000708051
0.00063302
0.000532779
0.000467501
0.000421646
0.000390052
0.000382189
0.000379427
0.000356237
0.000319218
0.000257648
0.000256708
0.000314355
0.000368971
0.00040931
0.000436679
0.000468761
0.000527359
0.000605429
0.000751098
0.000876877
0.000755167
0.000583164
0.000539961
0.000498755
0.000472586
0.000459583
0.000447528
0.000422487
0.00040471
0.000300609
0.000319194
0.000359437
0.000391734
0.000441654
0.000481649
0.00051934
0.000578318
0.0006515
0.000863164
0.0010809
0.000891378
0.000627567
0.000595841
0.000566459
0.00055389
0.000549993
0.000550708
0.000558326
0.000591043
0.000330274
0.00036789
0.000455106
0.00044681
0.000487601
0.00053563
0.000581106
0.000639487
0.00071475
0.00100436
0.00128818
0.00102737
0.000687332
0.000652613
0.000634592
0.000633819
0.000647392
0.000674429
0.000730891
0.000856403
0.000352556
0.000406292
0.000682778
0.00058725
0.000606267
0.000654606
0.000701444
0.000753317
0.000843259
0.00118909
0.00145409
0.00116882
0.000790433
0.000747376
0.000736729
0.000737999
0.000758999
0.000799166
0.000865247
0.00093486
0.000370717
0.000440046
0.000831322
0.000809545
0.000845218
0.000884308
0.000921425
0.000968377
0.00107079
0.00136484
0.00152599
0.00128172
0.000911243
0.000847078
0.000855219
0.000870681
0.000889066
0.000929438
0.000955014
0.000835017
0.000387192
0.000472367
0.000808837
0.00107083
0.00120309
0.00128484
0.00130279
0.00128159
0.00131497
0.00147275
0.00154215
0.00138042
0.00112357
0.00110604
0.00119055
0.00123163
0.0011906
0.00110524
0.000995179
0.000715993
0.000407622
0.000502939
0.000551966
0.000593067
0.00063301
0.000672824
0.000713452
0.000757539
0.000808182
0.000864389
0.000900576
0.000842532
0.000772271
0.000716695
0.000671978
0.00063213
0.000593336
0.000554513
0.000516647
0.000478014
0.00043251
0.000124589
0.000147961
0.000159581
0.000166801
0.00017132
0.000175646
0.000182399
0.000193524
0.000202794
0.000223503
0.000218097
0.000211673
0.000199687
0.000188715
0.000192953
0.000207922
0.000222475
0.000223105
0.000211174
0.000192451
0.000145052
0.000310289
0.00036169
0.000404196
0.000455065
0.000513216
0.000557574
0.000581809
0.000604554
0.000668786
0.000624991
0.00053072
0.000478452
0.000393452
0.000333688
0.000296825
0.000284787
0.000272727
0.000248466
0.000190069
0.000163756
0.000310346
0.000376206
0.000421121
0.000474105
0.000549389
0.000617557
0.000662405
0.000783718
0.0010113
0.0008627
0.000603983
0.000533976
0.000468844
0.000407565
0.000367099
0.000340387
0.00031748
0.000295952
0.000247531
0.000220863
0.000289773
0.000360245
0.000424606
0.000487665
0.000568158
0.000645161
0.000751098
0.00100729
0.00133277
0.00107632
0.000697954
0.000562983
0.000529425
0.000473799
0.000431744
0.000395212
0.000367638
0.000364792
0.000292079
0.000296775
0.000313524
0.000354343
0.000421675
0.000496075
0.000585548
0.000669636
0.000863164
0.00125421
0.00158459
0.00127826
0.000807762
0.000586353
0.000586781
0.000544347
0.000509283
0.000480501
0.000479876
0.000528578
0.000321375
0.00035066
0.000387883
0.000390027
0.000447782
0.000529086
0.000624714
0.000712813
0.00100436
0.00151113
0.00177488
0.00145934
0.000927182
0.000628955
0.000659504
0.000630104
0.000610516
0.000604449
0.000647509
0.000779692
0.00034271
0.00039148
0.000570804
0.000511737
0.000557212
0.000636872
0.00072209
0.000815723
0.00118909
0.00174043
0.00188943
0.00160735
0.00104183
0.000723832
0.000764232
0.000747185
0.000740567
0.000748996
0.000793641
0.000881064
0.000360025
0.000426456
0.000779359
0.000721309
0.000773972
0.000825096
0.000882908
0.000991313
0.00136484
0.00183033
0.00191113
0.0017076
0.00112132
0.000827593
0.000838229
0.000852071
0.000866625
0.000890841
0.000900965
0.000791276
0.000376535
0.00046099
0.000757143
0.000961965
0.00108799
0.00114866
0.00117572
0.00124935
0.00147275
0.00179378
0.00184108
0.00171797
0.00125441
0.00106619
0.00110574
0.00115275
0.00112709
0.00104993
0.000938152
0.000675359
0.00039757
0.000499799
0.000548909
0.000590416
0.000634061
0.000679553
0.000729941
0.00079021
0.000864389
0.000946522
0.000980398
0.000930743
0.000829871
0.000750621
0.00069122
0.000642265
0.000597365
0.000554238
0.000513538
0.000473626
0.00042713
0.000121724
0.000144965
0.000158328
0.000168135
0.000176852
0.000186407
0.000198233
0.000211485
0.000223503
0.000468186
0.000481109
0.00023051
0.000222315
0.000206512
0.000192994
0.000188981
0.000192375
0.000196208
0.000193361
0.00018167
0.000144067
0.000341688
0.000420569
0.000490974
0.000567189
0.000619305
0.000626452
0.000588785
0.000668786
0.000473628
0.000540009
0.000656481
0.000525007
0.000490937
0.000408072
0.000338896
0.000294675
0.000271625
0.000258823
0.000191917
0.000151221
0.000372396
0.000462382
0.00054332
0.000646197
0.000718526
0.000709101
0.000708051
0.0010113
0.000658852
0.000764807
0.000869038
0.000579902
0.000558294
0.000465621
0.000397819
0.00035407
0.000324309
0.000299392
0.000248386
0.000198533
0.00028422
0.000381953
0.000491123
0.000616201
0.000723948
0.000760647
0.000876877
0.00133277
0.000806728
0.000992645
0.00102666
0.000589206
0.000588754
0.000504078
0.000437996
0.000389558
0.000360634
0.000361528
0.000289884
0.000287747
0.00029052
0.000335646
0.000432744
0.000568659
0.000700348
0.00080901
0.0010809
0.00158459
0.000938881
0.00122826
0.00115143
0.000600811
0.000625276
0.000556865
0.000497778
0.000459547
0.000464697
0.000524501
0.000316735
0.000341868
0.00035664
0.000354254
0.000432181
0.000570701
0.000708352
0.000874825
0.00128818
0.00177488
0.00106338
0.00146257
0.00125014
0.000639043
0.00069456
0.000644603
0.000595162
0.00057241
0.000612178
0.000730512
0.000336027
0.000381468
0.000517432
0.000462178
0.000528896
0.000656646
0.000777673
0.000978202
0.00145409
0.00188943
0.00117947
0.00167039
0.00130955
0.000729184
0.000806699
0.000775327
0.000737426
0.000720575
0.000750324
0.000826043
0.000352013
0.000414732
0.000748669
0.000660183
0.000718583
0.00078918
0.000876196
0.00108262
0.00152599
0.00191113
0.00128659
0.00182027
0.00129407
0.00081755
0.000852505
0.000858754
0.000857348
0.000862182
0.000857328
0.000745984
0.000367847
0.000447334
0.000714732
0.000880694
0.000991579
0.00104176
0.00109036
0.00124112
0.00154215
0.00184108
0.00141035
0.00183407
0.00135641
0.00105358
0.00108255
0.00112653
0.00109314
0.00101199
0.000897741
0.000642299
0.000388438
0.000489188
0.000537687
0.000578912
0.000625714
0.000676664
0.000736375
0.000810864
0.000900576
0.000980398
0.000863025
0.000977707
0.000874048
0.000777475
0.000706243
0.00064931
0.000598385
0.000550871
0.000507558
0.0004662
0.000418905
0.000120451
0.000145316
0.000160723
0.000172066
0.000180728
0.000187309
0.000193746
0.00020465
0.000218097
0.000481109
0.000538453
0.000242248
0.00023296
0.000222381
0.000212178
0.000202884
0.00019831
0.000197794
0.000193766
0.000180463
0.000144197
0.000337335
0.000418968
0.000492176
0.000551518
0.000577129
0.000569934
0.000533908
0.000624991
0.000540009
0.000584996
0.000538483
0.000473495
0.000469254
0.000445828
0.000395845
0.000330291
0.000295274
0.000287641
0.000201867
0.000155238
0.000395694
0.000488679
0.0005824
0.000669381
0.000696501
0.000660037
0.00063302
0.0008627
0.000764807
0.000810427
0.000728283
0.000590372
0.000570032
0.000510951
0.000430713
0.000371689
0.000337052
0.00031385
0.000257293
0.000211339
0.000291338
0.000441757
0.000596646
0.000726911
0.000774694
0.000726717
0.000755167
0.00107632
0.000992645
0.00103776
0.000824187
0.00065101
0.000626489
0.000539238
0.000447778
0.000387509
0.000365786
0.000381068
0.000294279
0.000292955
0.000292182
0.000339654
0.000476932
0.000673761
0.000792456
0.000786208
0.000891378
0.00127826
0.00122826
0.00125418
0.000880441
0.000686085
0.000677874
0.000586154
0.000498592
0.000452777
0.00046648
0.000533656
0.0003182
0.000344027
0.000360009
0.000349331
0.000445678
0.000642604
0.000796545
0.000853297
0.00102737
0.00145934
0.00146257
0.00144525
0.000915277
0.000724297
0.000752847
0.000678936
0.000599461
0.000561246
0.000600972
0.00072022
0.000336093
0.000381796
0.000526273
0.000459895
0.000538422
0.000708281
0.000849921
0.000946305
0.00116882
0.00160735
0.00167039
0.00159243
0.000948291
0.000802451
0.000857873
0.000816761
0.000754646
0.000715338
0.00073196
0.000778945
0.000351772
0.000413856
0.000736571
0.000660167
0.000722168
0.000808091
0.00090169
0.00100663
0.00128172
0.0017076
0.00182027
0.00168035
0.000966147
0.000849493
0.000877728
0.000886014
0.000870231
0.000855186
0.000835193
0.000708774
0.000367872
0.000445477
0.000698812
0.000887658
0.000990719
0.00103744
0.00107449
0.00116342
0.00138042
0.00171797
0.00183407
0.00166505
0.00116397
0.00113383
0.00121257
0.00121177
0.00114407
0.00104177
0.000914605
0.000639773
0.000389825
0.000484809
0.000530563
0.000568862
0.000609647
0.00065349
0.000703859
0.000765617
0.000842532
0.000930743
0.000977707
0.000931015
0.000826735
0.000751442
0.000693704
0.000642823
0.00059516
0.000550043
0.000508419
0.000466906
0.00041924
0.000119565
0.000147507
0.000163673
0.000174106
0.000179953
0.00018261
0.000184599
0.000191882
0.000211673
0.00023051
0.000242248
0.000248569
0.0002496
0.000246787
0.000242874
0.000238664
0.000233496
0.000225853
0.000212544
0.000184692
0.000146372
0.000287653
0.00035307
0.000403685
0.000434706
0.000447043
0.000450007
0.000467331
0.00053072
0.000656481
0.000538483
0.000437339
0.000427687
0.000420352
0.000412629
0.000396969
0.000359187
0.000308005
0.00027648
0.000206113
0.000161274
0.000339687
0.000416317
0.00049191
0.000534981
0.000546068
0.000538657
0.000532779
0.000603983
0.000869038
0.000728283
0.000561307
0.000548965
0.000537284
0.000505688
0.000441065
0.000367123
0.000322762
0.000306582
0.000260687
0.000228599
0.000288149
0.000413461
0.00053438
0.000608373
0.000633725
0.000618073
0.000583164
0.000697954
0.00102666
0.000824187
0.000632824
0.000634429
0.000615911
0.000555672
0.000455047
0.000378325
0.000359111
0.000385179
0.000296542
0.000301094
0.000301787
0.000340132
0.000463883
0.00061887
0.000694174
0.000680955
0.000627567
0.000807762
0.00115143
0.000880441
0.000672346
0.000696912
0.000679079
0.00061287
0.00050682
0.000445701
0.000463256
0.000545212
0.000319606
0.00034887
0.000376443
0.000358215
0.000444652
0.000625212
0.000743052
0.000733684
0.000687332
0.000927182
0.00125014
0.000915277
0.000701125
0.000751209
0.000745123
0.000697387
0.000610232
0.000554785
0.000595118
0.000729868
0.000336899
0.000384877
0.000571825
0.000483651
0.000553992
0.000716686
0.000824474
0.000819896
0.000790433
0.00104183
0.00130955
0.000948291
0.000761425
0.000819433
0.000831044
0.000815324
0.000761474
0.00071066
0.000719935
0.000753707
0.000352369
0.000415773
0.000741522
0.000697581
0.000758206
0.000834138
0.000890592
0.000895853
0.000911243
0.00112132
0.00129407
0.000966147
0.000851133
0.000857873
0.000879491
0.000887541
0.000871879
0.000849385
0.00080834
0.000686016
0.000368528
0.000446319
0.000715346
0.000942591
0.00104974
0.00109812
0.00110754
0.00109836
0.00112357
0.00125441
0.00135641
0.00116397
0.00118882
0.00131976
0.00133883
0.00128801
0.00120274
0.00109108
0.000910945
0.00064443
0.000390942
0.00048085
0.000524374
0.000560729
0.000596969
0.000634484
0.00067494
0.000720435
0.000772271
0.000829871
0.000874048
0.000826735
0.000769356
0.000720764
0.000674027
0.000628439
0.000584748
0.000543124
0.000503713
0.000463249
0.000416632
0.000127789
0.000159824
0.000176296
0.000182913
0.000183579
0.000181936
0.000181369
0.000184368
0.000199687
0.000222315
0.00023296
0.0002496
0.000260239
0.000264839
0.000266093
0.000265014
0.0002612
0.00025348
0.000240745
0.000223081
0.000163883
0.00025342
0.000296297
0.000322558
0.000338143
0.000347963
0.000357208
0.000385906
0.000478452
0.000525007
0.000473495
0.000427687
0.000432475
0.00044156
0.000441916
0.000432593
0.000406362
0.000351549
0.000283875
0.000210294
0.000178489
0.000295851
0.000364425
0.000409853
0.000435287
0.000443545
0.000445416
0.000467501
0.000533976
0.000579902
0.000590372
0.000548965
0.000541249
0.0005427
0.000525252
0.000476699
0.000399264
0.000333665
0.000304121
0.000262533
0.000242653
0.0002932
0.000371315
0.000449842
0.000501541
0.000523768
0.00052782
0.000539961
0.000562983
0.000589206
0.00065101
0.000634429
0.000621408
0.000617077
0.000584376
0.000498494
0.000396568
0.000359099
0.000385512
0.000297381
0.000309015
0.000317315
0.000341635