/*--------------------------------*- C++ -*----------------------------------*\
  =========                 |
  \\      /  F ield         | OpenFOAM: The Open Source CFD Toolbox
   \\    /   O peration     | Website:  https://openfoam.org
    \\  /    A nd           | Version:  8
     \\/     M anipulation  |
\*---------------------------------------------------------------------------*/
FoamFile
{
    version     2.0;
    format      ascii;
    class       volScalarField;
    location    "1200";
    object      epsilon;
}
// * * * * * * * * * * * * * * * * * * * * * * * * * * * * * * * * * * * * * //

dimensions      [0 2 -3 0 0 0 0];

internalField   nonuniform List<scalar> 
4000
(
4.13195e-07
3.89106e-07
3.52223e-07
3.08837e-07
2.62914e-07
1.34245e-07
3.20732e-08
2.06849e-08
1.77716e-08
1.65019e-08
1.59715e-08
1.56988e-08
1.91127e-08
5.44621e-08
1.67275e-07
2.1683e-07
2.43817e-07
2.65303e-07
2.91674e-07
3.18043e-07
4.64246e-07
4.34542e-07
3.69898e-07
2.83985e-07
2.18162e-07
1.41721e-07
4.72564e-08
3.09069e-08
2.7942e-08
2.72615e-08
2.72786e-08
2.85572e-08
3.96488e-08
7.26879e-08
1.31568e-07
1.67732e-07
1.99356e-07
2.53743e-07
3.14811e-07
3.59527e-07
4.95133e-07
4.75644e-07
4.06424e-07
3.00926e-07
1.78457e-07
1.37771e-07
8.25234e-08
6.30405e-08
4.13232e-08
3.15154e-08
3.38068e-08
3.82574e-08
5.22731e-08
6.95259e-08
9.545e-08
1.21446e-07
1.6776e-07
2.66182e-07
3.44037e-07
3.84222e-07
5.124e-07
5.0889e-07
4.55175e-07
3.71868e-07
2.79923e-07
1.66665e-07
1.75152e-07
1.56438e-07
1.01355e-07
7.38457e-08
8.84025e-08
1.11577e-07
1.32682e-07
1.52357e-07
1.6977e-07
2.03397e-07
2.52255e-07
3.16893e-07
3.75544e-07
3.97631e-07
5.25209e-07
5.4117e-07
5.1859e-07
4.74197e-07
4.19015e-07
3.67897e-07
3.4055e-07
3.00693e-07
2.42509e-07
2.20789e-07
2.32805e-07
2.5246e-07
2.72423e-07
2.91332e-07
3.09911e-07
3.31575e-07
3.59131e-07
3.90566e-07
4.14133e-07
4.08755e-07
5.37549e-07
5.75187e-07
5.8309e-07
5.73865e-07
5.54956e-07
5.27182e-07
4.99365e-07
4.59425e-07
3.98326e-07
3.6888e-07
3.75869e-07
3.91766e-07
4.08873e-07
4.24452e-07
4.37527e-07
4.48037e-07
4.55311e-07
4.58239e-07
4.50338e-07
4.18089e-07
5.51111e-07
6.11362e-07
6.4801e-07
6.69046e-07
6.79903e-07
6.77156e-07
6.5738e-07
6.18245e-07
5.53194e-07
5.11649e-07
5.12996e-07
5.2536e-07
5.39296e-07
5.50421e-07
5.55557e-07
5.52713e-07
5.40209e-07
5.18145e-07
4.83167e-07
4.26008e-07
5.68002e-07
6.53928e-07
7.19321e-07
7.69032e-07
8.0607e-07
8.25499e-07
8.19913e-07
7.84939e-07
7.14286e-07
6.56762e-07
6.52708e-07
6.61674e-07
6.71943e-07
6.77257e-07
6.72692e-07
6.54701e-07
6.21571e-07
5.75673e-07
5.15796e-07
4.34402e-07
5.92149e-07
7.09403e-07
8.07183e-07
8.84043e-07
9.43318e-07
9.82375e-07
9.95203e-07
9.70397e-07
9.01414e-07
8.23214e-07
8.13387e-07
8.17925e-07
8.21781e-07
8.17467e-07
7.99098e-07
7.63031e-07
7.09422e-07
6.41184e-07
5.5525e-07
4.47583e-07
6.28413e-07
7.71874e-07
8.96812e-07
9.92972e-07
1.06895e-06
1.1252e-06
1.16019e-06
1.1686e-06
1.14584e-06
1.07277e-06
1.04446e-06
1.01866e-06
9.88323e-07
9.51494e-07
9.06605e-07
8.51762e-07
7.84934e-07
7.03312e-07
5.98496e-07
4.69569e-07
3.89106e-07
4.03408e-07
3.78221e-07
3.31586e-07
2.79564e-07
1.78227e-07
4.69657e-08
3.26201e-08
2.97647e-08
2.79829e-08
2.81849e-08
2.94887e-08
3.65166e-08
9.19756e-08
1.91451e-07
2.43361e-07
2.77129e-07
3.06985e-07
3.34273e-07
3.28319e-07
4.34542e-07
4.07816e-07
3.50372e-07
2.71631e-07
2.24065e-07
1.82031e-07
8.39151e-08
4.21408e-08
3.50448e-08
2.94397e-08
3.0075e-08
3.71872e-08
5.48118e-08
9.11823e-08
1.49473e-07
1.79246e-07
2.02397e-07
2.60881e-07
3.40615e-07
3.73969e-07
4.75644e-07
4.46706e-07
4.07672e-07
3.28429e-07
2.14363e-07
1.5657e-07
1.00069e-07
7.13679e-08
5.63318e-08
4.3207e-08
4.16896e-08
4.96941e-08
6.25706e-08
8.37215e-08
1.13133e-07
1.32115e-07
1.77222e-07
2.79845e-07
3.72137e-07
4.02783e-07
5.0889e-07
4.87438e-07
4.75568e-07
4.13631e-07
2.72643e-07
1.72674e-07
1.41635e-07
1.14249e-07
8.48023e-08
6.33317e-08
6.16563e-08
7.3589e-08
9.13188e-08
1.1047e-07
1.34459e-07
1.6187e-07
2.23475e-07
3.32568e-07
4.09229e-07
4.19828e-07
5.4117e-07
5.23519e-07
5.27517e-07
4.97945e-07
3.89775e-07
2.85122e-07
2.37487e-07
1.91041e-07
1.43408e-07
1.21299e-07
1.2492e-07
1.37426e-07
1.55073e-07
1.78811e-07
2.0626e-07
2.46649e-07
3.1313e-07
3.84831e-07
4.3162e-07
4.33175e-07
5.75187e-07
5.4664e-07
5.49173e-07
5.41763e-07
5.22343e-07
4.21682e-07
3.52553e-07
2.83611e-07
2.21574e-07
1.96193e-07
2.0037e-07
2.13545e-07
2.33222e-07
2.60147e-07
2.99323e-07
3.4682e-07
3.87293e-07
4.18303e-07
4.33892e-07
4.46487e-07
6.11362e-07
5.65256e-07
5.54263e-07
5.50372e-07
5.70063e-07
5.59179e-07
4.81569e-07
3.85648e-07
3.0564e-07
2.73396e-07
2.76592e-07
2.98913e-07
3.29828e-07
3.63106e-07
3.9119e-07
4.13338e-07
4.21942e-07
4.26808e-07
4.33955e-07
4.60847e-07
6.53928e-07
6.05429e-07
5.90428e-07
5.90176e-07
6.13766e-07
6.29099e-07
6.01638e-07
5.43099e-07
4.59041e-07
4.16351e-07
4.16836e-07
4.32614e-07
4.53702e-07
4.72557e-07
4.8359e-07
4.83608e-07
4.64428e-07
4.52892e-07
4.58498e-07
4.80929e-07
7.09403e-07
7.30306e-07
7.61296e-07
7.90669e-07
8.28476e-07
8.68399e-07
8.82052e-07
8.28894e-07
7.06069e-07
6.01331e-07
6.1102e-07
6.4645e-07
6.80124e-07
6.99283e-07
6.94703e-07
6.63856e-07
6.18255e-07
5.79396e-07
5.47811e-07
5.09736e-07
7.71874e-07
9.49403e-07
1.10907e-06
1.24162e-06
1.35679e-06
1.4517e-06
1.51854e-06
1.54272e-06
1.5158e-06
1.42254e-06
1.36767e-06
1.31985e-06
1.266e-06
1.2032e-06
1.12957e-06
1.04342e-06
9.44348e-07
8.31836e-07
6.97511e-07
5.41236e-07
3.52223e-07
3.78221e-07
3.62846e-07
3.23743e-07
2.76692e-07
1.93629e-07
5.71935e-08
3.79279e-08
3.72455e-08
3.64631e-08
3.81653e-08
4.0346e-08
4.91274e-08
1.14888e-07
2.05392e-07
2.56741e-07
2.92408e-07
3.23571e-07
3.4523e-07
3.23029e-07
3.69898e-07
3.50372e-07
3.06305e-07
2.45029e-07
2.18044e-07
1.86385e-07
9.77408e-08
5.30405e-08
4.09096e-08
3.59197e-08
3.83302e-08
4.85278e-08
6.75782e-08
1.05665e-07
1.59771e-07
1.85836e-07
2.0902e-07
2.66955e-07
3.42236e-07
3.65409e-07
4.06424e-07
4.07672e-07
3.68704e-07
3.03498e-07
2.21893e-07
1.65132e-07
1.08419e-07
7.95291e-08
6.29592e-08
4.8465e-08
4.72986e-08
5.77271e-08
7.32039e-08
9.41742e-08
1.22139e-07
1.45743e-07
1.94261e-07
2.88952e-07
3.80648e-07
3.96899e-07
4.55175e-07
4.75568e-07
4.38098e-07
3.72813e-07
2.53926e-07
1.67165e-07
1.23737e-07
9.76536e-08
7.7816e-08
6.16788e-08
5.44886e-08
6.39252e-08
7.96785e-08
9.47006e-08
1.15014e-07
1.40195e-07
2.11285e-07
3.3433e-07
4.2261e-07
4.18523e-07
5.1859e-07
5.27517e-07
4.79808e-07
4.21043e-07
3.05815e-07
2.04465e-07
1.5975e-07
1.29187e-07
1.00027e-07
7.95337e-08
7.50843e-08
8.32759e-08
9.71755e-08
1.14293e-07
1.33617e-07
1.63421e-07
2.4303e-07
3.64307e-07
4.47929e-07
4.36909e-07
5.8309e-07
5.49173e-07
4.84695e-07
4.24012e-07
3.46368e-07
2.54571e-07
2.03824e-07
1.63672e-07
1.27018e-07
1.04929e-07
1.01441e-07
1.08211e-07
1.20555e-07
1.39241e-07
1.64157e-07
1.99344e-07
2.64821e-07
3.6076e-07
4.46243e-07
4.56384e-07
6.4801e-07
5.54263e-07
4.65585e-07
3.87602e-07
3.39523e-07
2.88216e-07
2.41177e-07
1.96721e-07
1.57424e-07
1.34489e-07
1.30936e-07
1.37812e-07
1.50197e-07
1.67373e-07
1.88219e-07
2.15449e-07
2.57721e-07
3.3763e-07
4.29443e-07
4.82028e-07
7.19321e-07
5.90428e-07
4.9405e-07
4.00526e-07
3.69285e-07
3.604e-07
3.34245e-07
2.8675e-07
2.27854e-07
1.8827e-07
1.83499e-07
2.00247e-07
2.24477e-07
2.46581e-07
2.59622e-07
2.65122e-07
2.94568e-07
3.65979e-07
4.45121e-07
5.17862e-07
8.07183e-07
7.61296e-07
7.9347e-07
8.50156e-07
9.01428e-07
9.87346e-07
1.03803e-06
9.51006e-07
7.83844e-07
6.47697e-07
6.33396e-07
6.86363e-07
7.54317e-07
8.00797e-07
8.01628e-07
7.50095e-07
6.75047e-07
6.052e-07
5.67327e-07
5.65827e-07
8.96812e-07
1.10907e-06
1.30031e-06
1.46727e-06
1.6217e-06
1.75957e-06
1.86433e-06
1.91084e-06
1.88331e-06
1.77307e-06
1.68399e-06
1.61203e-06
1.53303e-06
1.44237e-06
1.33811e-06
1.21957e-06
1.08892e-06
9.48593e-07
7.90319e-07
6.11846e-07
3.08837e-07
3.31586e-07
3.23743e-07
2.9715e-07
2.55805e-07
1.78971e-07
5.85172e-08
4.04442e-08
4.24737e-08
4.36223e-08
4.6875e-08
4.86701e-08
5.51974e-08
1.2152e-07
2.05771e-07
2.54444e-07
2.87749e-07
3.1474e-07
3.28581e-07
3.00858e-07
2.83985e-07
2.71631e-07
2.45029e-07
2.21766e-07
2.07285e-07
1.74182e-07
9.64043e-08
5.89209e-08
4.49988e-08
4.20841e-08
4.61052e-08
5.57628e-08
7.35692e-08
1.10292e-07
1.60227e-07
1.83739e-07
2.0373e-07
2.53014e-07
3.1378e-07
3.2944e-07
3.00926e-07
3.28429e-07
3.03498e-07
2.57612e-07
2.03951e-07
1.57775e-07
1.07725e-07
8.14143e-08
6.50086e-08
5.39558e-08
5.51542e-08
6.56595e-08
7.99887e-08
1.00232e-07
1.27781e-07
1.54993e-07
2.02174e-07
2.81053e-07
3.61704e-07
3.62568e-07
3.71868e-07
4.13631e-07
3.72813e-07
3.08211e-07
2.23644e-07
1.57286e-07
1.16537e-07
9.2515e-08
7.57055e-08
6.35013e-08
5.96638e-08
6.88523e-08
8.13968e-08
9.51371e-08
1.14363e-07
1.45236e-07
2.17743e-07
3.22994e-07
4.13701e-07
3.94064e-07
4.74197e-07
4.97945e-07
4.21043e-07
3.43622e-07
2.49271e-07
1.71608e-07
1.31578e-07
1.0652e-07
8.52541e-08
6.84937e-08
6.14053e-08
6.66935e-08
8.03703e-08
9.4948e-08
1.11995e-07
1.41935e-07
2.21425e-07
3.42232e-07
4.4609e-07
4.26123e-07
5.73865e-07
5.41763e-07
4.24012e-07
3.38973e-07
2.60202e-07
1.90024e-07
1.50042e-07
1.2138e-07
9.61454e-08
7.73621e-08
6.94405e-08
7.13554e-08
8.20352e-08
9.79009e-08
1.15918e-07
1.42869e-07
2.1123e-07
3.29405e-07
4.48525e-07
4.59397e-07
6.69046e-07
5.50372e-07
3.87602e-07
3.04866e-07
2.50662e-07
2.05817e-07
1.73127e-07
1.44383e-07
1.17821e-07
9.80723e-08
9.05968e-08
9.29877e-08
1.02022e-07
1.14968e-07
1.28677e-07
1.46817e-07
1.91058e-07
2.87275e-07
4.26444e-07
4.97234e-07
7.69032e-07
5.90176e-07
4.00526e-07
3.37299e-07
3.34662e-07
3.43798e-07
3.41666e-07
3.10626e-07
2.56461e-07
2.07688e-07
1.93889e-07
2.09822e-07
2.37532e-07
2.58837e-07
2.60288e-07
2.43752e-07
2.45644e-07
3.10941e-07
4.29653e-07
5.45877e-07
8.84043e-07
7.90669e-07
8.50156e-07
9.42604e-07
1.10635e-06
1.30166e-06
1.41203e-06
1.30898e-06
1.10036e-06
9.09607e-07
8.5304e-07
9.07521e-07
9.96186e-07
1.05106e-06
1.0237e-06
8.95388e-07
7.48823e-07
6.47307e-07
5.77918e-07
6.09028e-07
9.92972e-07
1.24162e-06
1.46727e-06
1.67519e-06
1.88218e-06
2.07527e-06
2.23051e-06
2.31911e-06
2.32786e-06
2.23347e-06
2.06783e-06
1.94062e-06
1.81735e-06
1.68764e-06
1.54501e-06
1.3859e-06
1.21646e-06
1.04621e-06
8.64234e-07
6.64944e-07
2.62914e-07
2.79564e-07
2.76692e-07
2.55805e-07
2.17607e-07
1.37059e-07
4.96091e-08
4.16864e-08
4.60282e-08
5.07624e-08
5.43998e-08
5.3803e-08
5.62176e-08
1.12456e-07
1.93366e-07
2.38746e-07
2.67916e-07
2.87446e-07
2.93852e-07
2.6673e-07
2.18162e-07
2.24065e-07
2.18044e-07
2.07285e-07
1.89525e-07
1.45358e-07
8.7224e-08
5.6943e-08
4.77828e-08
4.94833e-08
5.20122e-08
5.75206e-08
7.31872e-08
1.06014e-07
1.52576e-07
1.75452e-07
1.90603e-07
2.23105e-07
2.6746e-07
2.74553e-07
1.78457e-07
2.14363e-07
2.21893e-07
2.03951e-07
1.73303e-07
1.37788e-07
1.00909e-07
7.81536e-08
6.39177e-08
6.2553e-08
6.43094e-08
6.82655e-08
8.1004e-08
1.00523e-07
1.27117e-07
1.53773e-07
1.9381e-07
2.5567e-07
3.22118e-07
3.09995e-07
2.79923e-07
2.72643e-07
2.53926e-07
2.23644e-07
1.77761e-07
1.37312e-07
1.08215e-07
8.79398e-08
7.49362e-08
7.19143e-08
7.35607e-08
7.37207e-08
8.36139e-08
9.74671e-08
1.17039e-07
1.49984e-07
2.14904e-07
3.04712e-07
3.91945e-07
3.59338e-07
4.19015e-07
3.89775e-07
3.05815e-07
2.49271e-07
1.9185e-07
1.45247e-07
1.1661e-07
9.60336e-08
8.04762e-08
7.33945e-08
7.33187e-08
7.05759e-08
7.88836e-08
9.32865e-08
1.10923e-07
1.42887e-07
2.14927e-07
3.21241e-07
4.36443e-07
4.08952e-07
5.54956e-07
5.22343e-07
3.46368e-07
2.60202e-07
2.01251e-07
1.56292e-07
1.26977e-07
1.04197e-07
8.66076e-08
7.8439e-08
7.64802e-08
7.049e-08
7.41428e-08
8.81495e-08
1.05155e-07
1.30842e-07
1.92582e-07
3.00861e-07
4.45332e-07
4.55585e-07
6.79903e-07
5.70063e-07
3.39523e-07
2.50662e-07
2.06771e-07
1.76679e-07
1.52807e-07
1.30193e-07
1.11856e-07
1.04194e-07
1.03198e-07
9.78427e-08
9.84229e-08
1.0635e-07
1.15898e-07
1.28363e-07
1.66788e-07
2.52237e-07
4.19993e-07
5.0533e-07
8.0607e-07
6.13766e-07
3.69285e-07
3.34662e-07
3.53546e-07
3.80255e-07
3.87005e-07
3.5236e-07
2.927e-07
2.44574e-07
2.27105e-07
2.36384e-07
2.67688e-07
2.91286e-07
2.85341e-07
2.52322e-07
2.39046e-07
2.7132e-07
4.19144e-07
5.62984e-07
9.43318e-07
8.28476e-07
9.01428e-07
1.10635e-06
1.40147e-06
1.67408e-06
1.78066e-06
1.60004e-06
1.32511e-06
1.10139e-06
9.96472e-07
1.05143e-06
1.18189e-06
1.27396e-06
1.24195e-06
1.05892e-06
8.33037e-07
6.81331e-07
5.85649e-07
6.3786e-07
1.06895e-06
1.35679e-06
1.6217e-06
1.88218e-06
2.15038e-06
2.40435e-06
2.62242e-06
2.77942e-06
2.86073e-06
2.81877e-06
2.5404e-06
2.32339e-06
2.12981e-06
1.94296e-06
1.75023e-06
1.54508e-06
1.33406e-06
1.12959e-06
9.23426e-07
7.0379e-07
1.34245e-07
1.78227e-07
1.93629e-07
1.78971e-07
1.37059e-07
6.36632e-08
3.84808e-08
4.20645e-08
4.96189e-08
5.95101e-08
6.07016e-08
5.62306e-08
5.51365e-08
9.00895e-08
1.70193e-07
2.12662e-07
2.37636e-07
2.49947e-07
2.49059e-07
2.25213e-07
1.41721e-07
1.82031e-07
1.86385e-07
1.74182e-07
1.45358e-07
1.03647e-07
7.46285e-08
5.15585e-08
5.25797e-08
6.09534e-08
5.61867e-08
5.53469e-08
6.85399e-08
9.61082e-08
1.37902e-07
1.61743e-07
1.72922e-07
1.87346e-07
2.10375e-07
2.09479e-07
1.37771e-07
1.5657e-07
1.65132e-07
1.57775e-07
1.37788e-07
1.12698e-07
8.88794e-08
7.04244e-08
6.65785e-08
8.13224e-08
7.17087e-08
6.57608e-08
7.68611e-08
9.55915e-08
1.19166e-07
1.41677e-07
1.69263e-07
2.09182e-07
2.56225e-07
2.51359e-07
1.66665e-07
1.72674e-07
1.67165e-07
1.57286e-07
1.37312e-07
1.1644e-07
9.69944e-08
8.17312e-08
7.96909e-08
1.0355e-07
9.23201e-08
7.39993e-08
8.11083e-08
9.55107e-08
1.13997e-07
1.42103e-07
1.91467e-07
2.62682e-07
3.43788e-07
3.22061e-07
3.67897e-07
2.85122e-07
2.04465e-07
1.71608e-07
1.45247e-07
1.22474e-07
1.03553e-07
8.87409e-08
8.73696e-08
1.17314e-07
1.15858e-07
7.85596e-08
7.87125e-08
9.31879e-08
1.11399e-07
1.41285e-07
2.00095e-07
2.88831e-07
4.1103e-07
3.86594e-07
5.27182e-07
4.21682e-07
2.54571e-07
1.90024e-07
1.56292e-07
1.31672e-07
1.11352e-07
9.56368e-08
9.66654e-08
1.34989e-07
1.38518e-07
8.49178e-08
7.45898e-08
8.73377e-08
1.05468e-07
1.31109e-07
1.83449e-07
2.73144e-07
4.38107e-07
4.44885e-07
6.77156e-07
5.59179e-07
2.88216e-07
2.05817e-07
1.76679e-07
1.59298e-07
1.42576e-07
1.28135e-07
1.34055e-07
1.84259e-07
1.88056e-07
1.22427e-07
1.01915e-07
1.06151e-07
1.15964e-07
1.28801e-07
1.61186e-07
2.32943e-07
4.1754e-07
5.03921e-07
8.25499e-07
6.29099e-07
3.604e-07
3.43798e-07
3.80255e-07
4.17966e-07
4.24027e-07
3.87405e-07
3.50824e-07
3.70866e-07
3.30135e-07
2.70286e-07
2.87103e-07
3.09669e-07
3.02275e-07
2.64899e-07
2.42864e-07
2.62197e-07
4.12962e-07
5.66264e-07
9.82375e-07
8.68399e-07
9.87346e-07
1.30166e-06
1.67408e-06
1.94966e-06
1.97082e-06
1.73329e-06
1.50423e-06
1.36283e-06
1.16054e-06
1.14968e-06
1.29908e-06
1.4224e-06
1.38854e-06
1.16783e-06
8.88008e-07
6.73444e-07
5.78166e-07
6.47789e-07
1.1252e-06
1.4517e-06
1.75957e-06
2.07527e-06
2.40435e-06
2.72736e-06
3.0325e-06
3.30865e-06
3.54103e-06
3.62623e-06
3.16619e-06
2.7884e-06
2.47778e-06
2.20521e-06
1.94581e-06
1.68654e-06
1.43193e-06
1.19394e-06
9.65455e-07
7.2821e-07
3.20732e-08
4.69657e-08
5.71935e-08
5.85172e-08
4.96091e-08
3.84808e-08
3.78288e-08
4.1749e-08
5.55056e-08
7.16397e-08
6.72912e-08
5.80649e-08
5.48441e-08
6.56155e-08
1.36253e-07
1.78241e-07
1.99987e-07
2.07675e-07
2.01711e-07
1.80916e-07
4.72564e-08
8.39151e-08
9.77408e-08
9.64043e-08
8.7224e-08
7.46285e-08
5.55139e-08
4.8249e-08
6.81461e-08
8.57825e-08
6.51e-08
5.38151e-08
6.27805e-08
8.59966e-08
1.17076e-07
1.4243e-07
1.52662e-07
1.55273e-07
1.51802e-07
1.28962e-07
8.25234e-08
1.00069e-07
1.08419e-07
1.07725e-07
1.00909e-07
8.88794e-08
7.30792e-08
6.44062e-08
9.44192e-08
1.39157e-07
9.24239e-08
6.42297e-08
7.04873e-08
8.74238e-08
1.05787e-07
1.22666e-07
1.36542e-07
1.51151e-07
1.71225e-07
1.98817e-07
1.75152e-07
1.41635e-07
1.23737e-07
1.16537e-07
1.08215e-07
9.69944e-08
8.42453e-08
8.09151e-08
1.29259e-07
2.36894e-07
1.43068e-07
7.62945e-08
7.53847e-08
8.88355e-08
1.03867e-07
1.22075e-07
1.48927e-07
1.89212e-07
2.55281e-07
2.82858e-07
3.4055e-07
2.37487e-07
1.5975e-07
1.31578e-07
1.1661e-07
1.03553e-07
9.16113e-08
9.31251e-08
1.68275e-07
3.54197e-07
2.28907e-07
9.21315e-08
7.59226e-08
8.88902e-08
1.05339e-07
1.27436e-07
1.66472e-07
2.33275e-07
3.62166e-07
3.59377e-07
4.99365e-07
3.52553e-07
2.03824e-07
1.50042e-07
1.26977e-07
1.11352e-07
9.92694e-08
1.07471e-07
2.20392e-07
4.94133e-07
3.32747e-07
1.14159e-07
7.56035e-08
8.56603e-08
1.03536e-07
1.26165e-07
1.66198e-07
2.40798e-07
4.22514e-07
4.26569e-07
6.5738e-07
4.81569e-07
2.41177e-07
1.73127e-07
1.52807e-07
1.42576e-07
1.36071e-07
1.5769e-07
3.24355e-07
6.83161e-07
4.67802e-07
1.6521e-07
1.04439e-07
1.05052e-07
1.15959e-07
1.29714e-07
1.56478e-07
2.14972e-07
4.11768e-07
4.90898e-07
8.19913e-07
6.01638e-07
3.34245e-07
3.41666e-07
3.87005e-07
4.24027e-07
4.33475e-07
4.4639e-07
6.91499e-07
1.08214e-06
7.22234e-07
3.13542e-07
2.85652e-07
3.0549e-07
3.00739e-07
2.68861e-07
2.424e-07
2.51211e-07
3.98566e-07
5.54996e-07
9.95203e-07
8.82052e-07
1.03803e-06
1.41203e-06
1.78066e-06
1.97082e-06
1.91433e-06
1.77541e-06
1.87085e-06
2.06022e-06
1.55823e-06
1.26103e-06
1.3383e-06
1.46755e-06
1.43512e-06
1.19781e-06
8.89876e-07
6.44717e-07
5.5677e-07
6.40358e-07
1.16019e-06
1.51854e-06
1.86433e-06
2.23051e-06
2.62242e-06
3.0325e-06
3.47088e-06
3.95703e-06
4.48849e-06
4.83172e-06
4.06354e-06
3.38074e-06
2.87234e-06
2.47285e-06
2.1264e-06
1.8041e-06
1.50384e-06
1.23542e-06
9.88163e-07
7.38184e-07
2.06849e-08
3.26201e-08
3.79279e-08
4.04442e-08
4.16864e-08
4.20645e-08
4.1749e-08
4.77997e-08
6.56623e-08
8.67739e-08
7.92436e-08
6.51623e-08
5.7521e-08
5.80302e-08
9.25912e-08
1.3645e-07
1.55996e-07
1.60146e-07
1.5036e-07
1.26734e-07
3.09069e-08
4.21408e-08
5.30405e-08
5.89209e-08
5.6943e-08
5.15585e-08
4.8249e-08
6.05095e-08
1.16381e-07
1.77524e-07
1.08958e-07
6.88026e-08
6.15419e-08
7.5921e-08
9.39928e-08
1.16093e-07
1.25971e-07
1.2242e-07
1.05055e-07
8.45993e-08
6.30405e-08
7.13679e-08
7.95291e-08
8.14143e-08
7.81536e-08
7.04244e-08
6.44062e-08
9.01113e-08
2.44648e-07
4.8101e-07
2.67844e-07
9.71139e-08
6.95524e-08
7.91777e-08
9.12518e-08
1.0242e-07
1.08463e-07
1.12365e-07
1.28465e-07
1.59637e-07
1.56438e-07
1.14249e-07
9.76536e-08
9.2515e-08
8.79398e-08
8.17312e-08
8.09151e-08
1.34703e-07
4.29712e-07
9.42914e-07
5.13592e-07
1.3689e-07
7.56386e-08
8.11841e-08
9.12877e-08
1.00855e-07
1.12241e-07
1.35556e-07
1.97302e-07
2.50095e-07
3.00693e-07
1.91041e-07
1.29187e-07
1.0652e-07
9.60336e-08
8.87409e-08
9.31251e-08
1.88803e-07
6.94994e-07
1.58532e-06
8.62088e-07
1.95211e-07
8.03614e-08
8.23995e-08
9.42421e-08
1.07483e-07
1.2938e-07
1.78572e-07
2.98824e-07
3.30108e-07
4.59425e-07
2.83611e-07
1.63672e-07
1.2138e-07
1.04197e-07
9.56368e-08
1.07471e-07
2.63699e-07
1.04397e-06
2.32967e-06
1.30729e-06
2.74377e-07
8.77584e-08
8.23964e-08
9.59808e-08
1.12654e-07
1.4024e-07
2.0365e-07
3.85894e-07
4.00259e-07
6.18245e-07
3.85648e-07
1.96721e-07
1.44383e-07
1.30193e-07
1.28135e-07
1.5769e-07
4.03129e-07
1.50639e-06
3.11434e-06
1.7649e-06
3.81837e-07
1.21842e-07
1.03092e-07
1.11161e-07
1.22837e-07
1.42919e-07
1.91979e-07
3.84163e-07
4.64588e-07
7.84939e-07
5.43099e-07
2.8675e-07
3.10626e-07
3.5236e-07
3.87405e-07
4.4639e-07
7.71831e-07
2.15252e-06
3.47939e-06
2.08215e-06
5.44286e-07
2.81044e-07
2.80923e-07
2.78774e-07
2.5428e-07
2.29018e-07
2.30225e-07
3.69343e-07
5.28586e-07
9.70397e-07
8.28894e-07
9.51006e-07
1.30898e-06
1.60004e-06
1.73329e-06
1.77541e-06
2.04638e-06
2.95753e-06
3.84261e-06
2.61774e-06
1.52195e-06
1.32781e-06
1.39106e-06
1.34773e-06
1.12368e-06
8.29168e-07
5.84961e-07
5.16236e-07
6.15732e-07
1.1686e-06
1.54272e-06
1.91084e-06
2.31911e-06
2.77942e-06
3.30865e-06
3.95703e-06
4.80205e-06
5.86735e-06
6.59416e-06
5.39537e-06
4.15078e-06
3.31662e-06
2.73431e-06
2.27763e-06
1.88526e-06
1.54056e-06
1.24706e-06
9.8834e-07
7.32979e-07
1.77716e-08
2.97647e-08
3.72455e-08
4.24737e-08
4.60282e-08
4.96189e-08
5.55056e-08
6.56623e-08
7.49179e-08
1.02336e-07
9.52463e-08
8.69801e-08
7.27952e-08
6.13846e-08
6.66952e-08
8.52132e-08
1.06028e-07
1.0796e-07
9.24138e-08
6.90601e-08
2.7942e-08
3.50448e-08
4.09096e-08
4.49988e-08
4.77828e-08
5.25797e-08
6.81461e-08
1.16381e-07
2.8022e-07
9.23016e-07
5.61854e-07
1.87091e-07
9.35444e-08
7.60677e-08
7.98941e-08
8.73745e-08
9.44371e-08
9.07296e-08
7.60099e-08
6.44222e-08
4.13232e-08
5.63318e-08
6.29592e-08
6.50086e-08
6.39177e-08
6.65785e-08
9.44192e-08
2.44648e-07
8.07105e-07
3.02664e-06
1.60157e-06
4.44656e-07
1.10377e-07
7.9488e-08
8.0622e-08
8.46993e-08
8.72906e-08
9.00561e-08
1.07207e-07
1.39173e-07
1.01355e-07
8.48023e-08
7.7816e-08
7.57055e-08
7.49362e-08
7.96909e-08
1.29259e-07
4.29712e-07
1.64849e-06
5.43013e-06
2.56957e-06
7.05999e-07
1.23627e-07
7.99523e-08
8.09287e-08
8.53236e-08
9.20583e-08
1.12881e-07
1.72531e-07
2.28527e-07
2.42509e-07
1.43408e-07
1.00027e-07
8.52541e-08
8.04762e-08
8.73696e-08
1.68275e-07
6.94994e-07
2.89573e-06
7.39348e-06
3.51618e-06
9.96617e-07
1.42702e-07
8.12144e-08
8.35954e-08
9.13941e-08
1.06997e-07
1.50791e-07
2.62148e-07
3.03865e-07
3.98326e-07
2.21574e-07
1.27018e-07
9.61454e-08
8.66076e-08
9.66654e-08
2.20392e-07
1.04397e-06
4.34785e-06
8.67486e-06
4.33651e-06
1.28362e-06
1.70496e-07
8.45915e-08
8.68936e-08
9.767e-08
1.18403e-07
1.751e-07
3.38104e-07
3.67775e-07
5.53194e-07
3.0564e-07
1.57424e-07
1.17821e-07
1.11856e-07
1.34055e-07
3.24355e-07
1.50639e-06
5.55309e-06
8.99775e-06
4.89358e-06
1.47022e-06
2.18126e-07
1.08244e-07
1.0462e-07
1.11047e-07
1.25193e-07
1.67366e-07
3.4007e-07
4.25605e-07
7.14286e-07
4.59041e-07
2.27854e-07
2.56461e-07
2.927e-07
3.50824e-07
6.91499e-07
2.15252e-06
5.67446e-06
8.31291e-06
5.03682e-06
1.4302e-06
3.30632e-07
2.52208e-07
2.45443e-07
2.26084e-07
2.03514e-07
2.00834e-07
3.30288e-07
4.85904e-07
9.01414e-07
7.06069e-07
7.83844e-07
1.10036e-06
1.32511e-06
1.50423e-06
1.87085e-06
2.95753e-06
5.35267e-06
7.12355e-06
4.86383e-06
2.21479e-06
1.40481e-06
1.26887e-06
1.18125e-06
9.8206e-07
7.26673e-07
5.06552e-07
4.58809e-07
5.70642e-07
1.14584e-06
1.5158e-06
1.88331e-06
2.32786e-06
2.86073e-06
3.54103e-06
4.48849e-06
5.86735e-06
7.67569e-06
8.45183e-06
7.23328e-06
5.1276e-06
3.79752e-06
2.96852e-06
2.38321e-06
1.91917e-06
1.53444e-06
1.22183e-06
9.59352e-07
7.04826e-07
1.65019e-08
2.79829e-08
3.64631e-08
4.36223e-08
5.07624e-08
5.95101e-08
7.16397e-08
8.67739e-08
1.02336e-07
5.35468e-08
5.50063e-08
1.11743e-07
9.9989e-08
8.00363e-08
6.57213e-08
6.30813e-08
6.79319e-08
7.24282e-08
6.87997e-08
5.63954e-08
2.72615e-08
2.94397e-08
3.59197e-08
4.20841e-08
4.94833e-08
6.09534e-08
8.57825e-08
1.77524e-07
9.23016e-07
9.09354e-07
7.21908e-07
4.84457e-07
1.34297e-07
1.00321e-07
8.06109e-08
7.32895e-08
7.13381e-08
6.82958e-08
6.41594e-08
6.38893e-08
3.15154e-08
4.3207e-08
4.8465e-08
5.39558e-08
6.2553e-08
8.13224e-08
1.39157e-07
4.8101e-07
3.02664e-06
1.58225e-06
1.44711e-06
1.35734e-06
1.83665e-07
9.69809e-08
7.76501e-08
7.33302e-08
7.3675e-08
7.94936e-08
1.02284e-07
1.38559e-07
7.38457e-08
6.33317e-08
6.16788e-08
6.35013e-08
7.19143e-08
1.0355e-07
2.36894e-07
9.42914e-07
5.43013e-06
2.03302e-06
2.38552e-06
2.08444e-06
2.31117e-07
9.10844e-08
7.45671e-08
7.44667e-08
8.2182e-08
1.07115e-07
1.67599e-07
2.2168e-07
2.20789e-07
1.21299e-07
7.95337e-08
6.84937e-08
7.33945e-08
1.17314e-07
3.54197e-07
1.58532e-06
7.39348e-06
2.40021e-06
3.57589e-06
2.68121e-06
2.74264e-07
9.01373e-08
7.59547e-08
7.98734e-08
9.56635e-08
1.40242e-07
2.45469e-07
2.89533e-07
3.6888e-07
1.96193e-07
1.04929e-07
7.73621e-08
7.8439e-08
1.34989e-07
4.94133e-07
2.32967e-06
8.67486e-06
2.74825e-06
4.94115e-06
3.07783e-06
3.14989e-07
9.59016e-08
8.04457e-08
8.53087e-08
1.02913e-07
1.55035e-07
2.98343e-07
3.45593e-07
5.11649e-07
2.73396e-07
1.34489e-07
9.80723e-08
1.04194e-07
1.84259e-07
6.83161e-07
3.11434e-06
8.99775e-06
3.06253e-06
6.20197e-06
3.11021e-06
3.57972e-07
1.25578e-07
1.03728e-07
1.01663e-07
1.09683e-07
1.44959e-07
3.01788e-07
3.96743e-07
6.56762e-07
4.16351e-07
1.8827e-07
2.07688e-07
2.44574e-07
3.70866e-07
1.08214e-06
3.47939e-06
8.31291e-06
3.29713e-06
6.9415e-06
2.58847e-06
4.07542e-07
2.49496e-07
2.31131e-07
2.07193e-07
1.82311e-07
1.7621e-07
3.01606e-07
4.5172e-07
8.23214e-07
6.01331e-07
6.47697e-07
9.09607e-07
1.10139e-06
1.36283e-06
2.06022e-06
3.84261e-06
7.12355e-06
3.6982e-06
6.66742e-06
3.06442e-06
1.56435e-06
1.22959e-06
1.08757e-06
8.78982e-07
6.46307e-07
4.5115e-07
4.21056e-07
5.30305e-07
1.07277e-06
1.42254e-06
1.77307e-06
2.23347e-06
2.81877e-06
3.62623e-06
4.83172e-06
6.59416e-06
8.45183e-06
5.75745e-06
8.36233e-06
5.95151e-06
4.19711e-06
3.15421e-06
2.45392e-06
1.92169e-06
1.50028e-06
1.17436e-06
9.10643e-07
6.62044e-07
1.59715e-08
2.81849e-08
3.81653e-08
4.6875e-08
5.43998e-08
6.07016e-08
6.72912e-08
7.92436e-08
9.52463e-08
5.50063e-08
6.17882e-08
1.31834e-07
1.16763e-07
1.01341e-07
8.76879e-08
7.63678e-08
7.19135e-08
7.18415e-08
6.76986e-08
5.47906e-08
2.72786e-08
3.0075e-08
3.83302e-08
4.61052e-08
5.20122e-08
5.61867e-08
6.51e-08
1.08958e-07
5.61854e-07
7.21908e-07
4.92293e-07
2.03851e-07
1.19049e-07
1.10272e-07
9.63185e-08
7.69547e-08
6.07357e-08
5.61377e-08
6.30207e-08
7.34768e-08
3.38068e-08
4.16896e-08
4.72986e-08
5.51542e-08
6.43094e-08
7.17087e-08
9.24239e-08
2.67844e-07
1.60157e-06
1.44711e-06
1.1927e-06
4.78423e-07
1.28231e-07
1.0375e-07
8.03721e-08
6.36746e-08
6.19973e-08
7.6392e-08
1.12354e-07
1.52738e-07
8.84025e-08
6.16563e-08
5.44886e-08
5.96638e-08
7.35607e-08
9.23201e-08
1.43068e-07
5.13592e-07
2.56957e-06
2.38552e-06
2.21783e-06
7.03483e-07
1.3815e-07
9.63481e-08
7.24277e-08
6.54528e-08
7.58981e-08
1.08418e-07
1.75314e-07
2.3105e-07
2.32805e-07
1.2492e-07
7.50843e-08
6.14053e-08
7.33187e-08
1.15858e-07
2.28907e-07
8.62088e-07
3.51618e-06
3.57589e-06
3.46982e-06
8.92659e-07
1.48099e-07
9.24258e-08
7.24137e-08
7.05883e-08
8.69618e-08
1.32982e-07
2.35777e-07
2.92983e-07
3.75869e-07
2.0037e-07
1.01441e-07
6.94405e-08
7.64802e-08
1.38518e-07
3.32747e-07
1.30729e-06
4.33651e-06
4.94115e-06
4.71583e-06
1.02663e-06
1.57369e-07
9.51074e-08
7.82204e-08
7.56905e-08
9.0003e-08
1.38921e-07
2.78119e-07
3.45257e-07
5.12996e-07
2.76592e-07
1.30936e-07
9.05968e-08
1.03198e-07
1.88056e-07
4.67802e-07
1.7649e-06
4.89358e-06
6.20197e-06
5.59428e-06
1.08029e-06
1.83062e-07
1.22884e-07
1.08503e-07
9.74353e-08
9.78624e-08
1.25211e-07
2.82104e-07
3.95249e-07
6.52708e-07
4.16836e-07
1.83499e-07
1.93889e-07
2.27105e-07
3.30135e-07
7.22234e-07
2.08215e-06
5.03682e-06
6.9415e-06
5.68587e-06
9.62162e-07
2.96911e-07
2.66053e-07
2.48054e-07
2.14997e-07
1.80427e-07
1.69451e-07
2.98094e-07
4.50777e-07
8.13387e-07
6.1102e-07
6.33396e-07
8.5304e-07
9.96472e-07
1.16054e-06
1.55823e-06
2.61774e-06
4.86383e-06
6.66742e-06
5.00614e-06
2.03367e-06
1.48923e-06
1.40698e-06
1.20536e-06
9.42369e-07
6.88004e-07
4.88702e-07
4.46989e-07
5.34398e-07
1.04446e-06
1.36767e-06
1.68399e-06
2.06783e-06
2.5404e-06
3.16619e-06
4.06354e-06
5.39537e-06
7.23328e-06
8.36233e-06
7.12667e-06
5.00599e-06
3.77545e-06
2.97605e-06
2.36906e-06
1.88104e-06
1.48608e-06
1.1748e-06
9.11027e-07
6.61287e-07
1.56988e-08
2.94887e-08
4.0346e-08
4.86701e-08
5.3803e-08
5.62306e-08
5.80649e-08
6.51623e-08
8.69801e-08
1.11743e-07
1.31834e-07
1.43529e-07
1.45365e-07
1.40436e-07
1.33732e-07
1.26747e-07
1.18616e-07
1.07419e-07
8.96446e-08
5.86245e-08
2.85572e-08
3.71872e-08
4.85278e-08
5.57628e-08
5.75206e-08
5.53469e-08
5.38151e-08
6.88026e-08
1.87091e-07
4.84457e-07
2.03851e-07
1.28143e-07
1.32813e-07
1.28277e-07
1.24579e-07
1.18063e-07
9.93398e-08
7.51694e-08
6.41655e-08
7.78352e-08
3.82574e-08
4.96941e-08
5.77271e-08
6.56595e-08
6.82655e-08
6.57608e-08
6.42297e-08
9.71139e-08
4.44656e-07
1.35734e-06
4.78423e-07
1.34408e-07
1.23602e-07
1.17122e-07
1.01254e-07
7.49235e-08
5.81816e-08
6.85164e-08
1.08675e-07
1.58324e-07
1.11577e-07
7.3589e-08
6.39252e-08
6.88523e-08
7.37207e-08
7.39993e-08
7.62945e-08
1.3689e-07
7.05999e-07
2.08444e-06
7.03483e-07
1.47547e-07
1.16497e-07
1.0881e-07
8.73615e-08
6.38985e-08
6.98662e-08
1.04634e-07
1.7568e-07
2.3566e-07
2.5246e-07
1.37426e-07
8.32759e-08
6.66935e-08
7.05759e-08
7.85596e-08
9.21315e-08
1.95211e-07
9.96617e-07
2.68121e-06
8.92659e-07
1.62414e-07
1.10814e-07
1.03372e-07
8.32681e-08
6.6489e-08
7.96967e-08
1.26294e-07
2.32983e-07
2.96115e-07
3.91766e-07
2.13545e-07
1.08211e-07
7.13554e-08
7.049e-08
8.49178e-08
1.14159e-07
2.74377e-07
1.28362e-06
3.07783e-06
1.02663e-06
1.74827e-07
1.05324e-07
9.88342e-08
8.42363e-08
7.0449e-08
8.022e-08
1.28031e-07
2.71815e-07
3.46917e-07
5.2536e-07
2.98913e-07
1.37812e-07
9.29877e-08
9.78427e-08
1.22427e-07
1.6521e-07
3.81837e-07
1.47022e-06
3.11021e-06
1.08029e-06
1.98398e-07
1.17003e-07
1.1182e-07
1.04799e-07
9.18495e-08
8.80825e-08
1.13829e-07
2.73929e-07
3.96179e-07
6.61674e-07
4.32614e-07
2.00247e-07
2.09822e-07
2.36384e-07
2.70286e-07
3.13542e-07
5.44286e-07
1.4302e-06
2.58847e-06
9.62162e-07
3.31548e-07
2.88711e-07
2.66296e-07
2.392e-07
2.10548e-07
1.80732e-07
1.76372e-07
3.03119e-07
4.51413e-07
8.17925e-07
6.4645e-07
6.86363e-07
9.07521e-07
1.05143e-06
1.14968e-06
1.26103e-06
1.52195e-06
2.21479e-06
3.06442e-06
2.03367e-06
1.65126e-06
1.81231e-06
1.59328e-06
1.27384e-06
9.91938e-07
7.4421e-07
5.56133e-07
4.78542e-07
5.36372e-07
1.01866e-06
1.31985e-06
1.61203e-06
1.94062e-06
2.32339e-06
2.7884e-06
3.38074e-06
4.15078e-06
5.1276e-06
5.95151e-06
5.00599e-06
4.04662e-06
3.3279e-06
2.71694e-06
2.19953e-06
1.77183e-06
1.42108e-06
1.13524e-06
8.8485e-07
6.46099e-07
1.91127e-08
3.65166e-08
4.91274e-08
5.51974e-08
5.62176e-08
5.51365e-08
5.48441e-08
5.7521e-08
7.27952e-08
9.9989e-08
1.16763e-07
1.45365e-07
1.64697e-07
1.73388e-07
1.75696e-07
1.73469e-07
1.6607e-07
1.5183e-07
1.30168e-07
1.03737e-07
3.96488e-08
5.48118e-08
6.75782e-08
7.35692e-08
7.31872e-08
6.85399e-08
6.27805e-08
6.15419e-08
9.35444e-08
1.34297e-07
1.19049e-07
1.32813e-07
1.49142e-07
1.55684e-07
1.5673e-07
1.56094e-07
1.47967e-07
1.19412e-07
8.53494e-08
8.28381e-08
5.22731e-08
6.25706e-08
7.32039e-08
7.99887e-08
8.1004e-08
7.68611e-08
7.04873e-08
6.95524e-08
1.10377e-07
1.83665e-07
1.28231e-07
1.23602e-07
1.33862e-07
1.3644e-07
1.30697e-07
1.15742e-07
8.96705e-08
7.97578e-08
1.09285e-07
1.61603e-07
1.32682e-07
9.13188e-08
7.96785e-08