/*--------------------------------*- C++ -*----------------------------------*\
  =========                 |
  \\      /  F ield         | OpenFOAM: The Open Source CFD Toolbox
   \\    /   O peration     | Website:  https://openfoam.org
    \\  /    A nd           | Version:  8
     \\/     M anipulation  |
\*---------------------------------------------------------------------------*/
FoamFile
{
    version     2.0;
    format      ascii;
    class       volScalarField;
    location    "1200";
    object      k;
}
// * * * * * * * * * * * * * * * * * * * * * * * * * * * * * * * * * * * * * //

dimensions      [0 2 -2 0 0 0 0];

internalField   nonuniform List<scalar> 
4000
(
4.04361e-05
3.88439e-05
3.63416e-05
3.32866e-05
2.98771e-05
1.88887e-05
7.30278e-06
5.4791e-06
4.96257e-06
4.72671e-06
4.62576e-06
4.5692e-06
5.21213e-06
1.0633e-05
2.21957e-05
2.63406e-05
2.84714e-05
3.01197e-05
3.20822e-05
3.3987e-05
4.36974e-05
4.18053e-05
3.75357e-05
3.14539e-05
2.64092e-05
1.96636e-05
9.45787e-06
7.15716e-06
6.71444e-06
6.60962e-06
6.61468e-06
6.81878e-06
8.50162e-06
1.27404e-05
1.89028e-05
2.21828e-05
2.48892e-05
2.92383e-05
3.37559e-05
3.68817e-05
4.56112e-05
4.43974e-05
3.99623e-05
3.26767e-05
2.31031e-05
1.93767e-05
1.38033e-05
1.15124e-05
8.67602e-06
7.28103e-06
7.64058e-06
8.28446e-06
1.01876e-05
1.23276e-05
1.52565e-05
1.78835e-05
2.22037e-05
3.01865e-05
3.58136e-05
3.85526e-05
4.66621e-05
4.64388e-05
4.3096e-05
3.76396e-05
3.11073e-05
2.20004e-05
2.28028e-05
2.11362e-05
1.57804e-05
1.27706e-05
1.44163e-05
1.68445e-05
1.89249e-05
2.07711e-05
2.23337e-05
2.52239e-05
2.91218e-05
3.3904e-05
3.79683e-05
3.94456e-05
4.7433e-05
4.83788e-05
4.70129e-05
4.4278e-05
4.07593e-05
3.7374e-05
3.55138e-05
3.26758e-05
2.82954e-05
2.65847e-05
2.75445e-05
2.90794e-05
3.06019e-05
3.2014e-05
3.33751e-05
3.49267e-05
3.68456e-05
3.89718e-05
4.05285e-05
4.01797e-05
4.81696e-05
5.0382e-05
5.08344e-05
5.02919e-05
4.91776e-05
4.75229e-05
4.58423e-05
4.33615e-05
3.94186e-05
3.7455e-05
3.79274e-05
3.89926e-05
4.01268e-05
4.11502e-05
4.20034e-05
4.26866e-05
4.31592e-05
4.33533e-05
4.28597e-05
4.07909e-05
4.89728e-05
5.24688e-05
5.45383e-05
5.57107e-05
5.6314e-05
5.6165e-05
5.50693e-05
5.28611e-05
4.9083e-05
4.65964e-05
4.66778e-05
4.7427e-05
4.82683e-05
4.894e-05
4.92567e-05
4.91019e-05
4.83711e-05
4.70553e-05
4.49199e-05
4.13058e-05
4.99649e-05
5.48724e-05
5.84651e-05
6.11279e-05
6.30796e-05
6.40967e-05
6.38131e-05
6.19874e-05
5.82117e-05
5.50459e-05
5.48177e-05
5.53205e-05
5.5897e-05
5.62011e-05
5.59612e-05
5.49731e-05
5.31158e-05
5.04785e-05
4.69217e-05
4.18477e-05
5.13682e-05
5.79305e-05
6.3131e-05
6.70765e-05
7.00469e-05
7.19781e-05
7.2615e-05
7.14085e-05
6.79898e-05
6.40042e-05
6.34887e-05
6.37256e-05
6.39322e-05
6.37192e-05
6.27752e-05
6.08864e-05
5.80135e-05
5.42417e-05
4.92868e-05
4.26904e-05
5.34438e-05
6.12886e-05
6.77345e-05
7.24981e-05
7.61597e-05
7.88204e-05
8.04594e-05
8.08581e-05
7.98164e-05
7.64053e-05
7.50522e-05
7.38162e-05
7.23509e-05
7.05508e-05
6.83232e-05
6.55477e-05
6.20799e-05
5.77034e-05
5.18204e-05
4.40797e-05
3.88439e-05
3.97909e-05
3.81098e-05
3.48971e-05
3.11252e-05
2.28648e-05
9.40746e-06
7.43672e-06
6.99888e-06
6.71712e-06
6.74947e-06
6.9557e-06
8.057e-06
1.4987e-05
2.42745e-05
2.84485e-05
3.10115e-05
3.3197e-05
3.5133e-05
3.4715e-05
4.18053e-05
4.70791e-05
4.45039e-05
3.76396e-05
3.16674e-05
2.59886e-05
1.54911e-05
1.12383e-05
1.0998e-05
1.0578e-05
1.06232e-05
1.09082e-05
1.24302e-05
1.65215e-05
2.31166e-05
2.72953e-05
3.04693e-05
3.59539e-05
4.17521e-05
3.78622e-05
4.43974e-05
5.22773e-05
5.19789e-05
4.51113e-05
3.26194e-05
2.4875e-05
1.83979e-05
1.52088e-05
1.39452e-05
1.33784e-05
1.35462e-05
1.3703e-05
1.43498e-05
1.66376e-05
2.01153e-05
2.28896e-05
2.84178e-05
3.92391e-05
4.65436e-05
3.97836e-05
4.64388e-05
5.67137e-05
5.92955e-05
5.38511e-05
3.85899e-05
2.71251e-05
2.33508e-05
1.9988e-05
1.65335e-05
1.41504e-05
1.41357e-05
1.53584e-05
1.72581e-05
1.95532e-05
2.23919e-05
2.55112e-05
3.25e-05
4.49787e-05
5.10747e-05
4.08995e-05
4.83788e-05
6.02179e-05
6.47523e-05
6.25727e-05
4.98558e-05
3.78544e-05
3.27178e-05
2.76382e-05
2.23644e-05
1.97994e-05
2.01501e-05
2.14793e-05
2.33964e-05
2.60409e-05
2.91374e-05
3.37481e-05
4.18536e-05
5.04741e-05
5.36907e-05
4.17639e-05
5.0382e-05
6.22932e-05
6.73805e-05
6.83475e-05
6.50836e-05
5.25328e-05
4.52579e-05
3.78927e-05
3.09205e-05
2.78994e-05
2.83276e-05
2.99041e-05
3.22173e-05
3.53783e-05
4.01553e-05
4.60318e-05
5.11886e-05
5.47165e-05
5.39766e-05
4.26156e-05
5.24688e-05
6.35398e-05
6.80318e-05
7.08133e-05
7.40084e-05
7.24655e-05
6.46443e-05
5.41219e-05
4.40541e-05
3.96698e-05
4.02405e-05
4.36055e-05
4.78664e-05
5.21012e-05
5.51914e-05
5.71565e-05
5.73982e-05
5.6467e-05
5.36191e-05
4.35238e-05
5.48724e-05
6.52758e-05
6.91544e-05
7.27486e-05
7.70066e-05
7.90372e-05
7.64659e-05
7.08701e-05
6.30861e-05
5.88862e-05
5.84425e-05
5.97381e-05
6.18419e-05
6.38011e-05
6.47853e-05
6.42606e-05
6.13883e-05
5.80186e-05
5.42881e-05
4.47783e-05
5.79305e-05
6.93478e-05
7.58896e-05
8.14332e-05
8.62977e-05
8.98076e-05
9.06412e-05
8.63614e-05
7.71174e-05
6.91462e-05
6.89203e-05
7.1724e-05
7.4922e-05
7.70111e-05
7.68197e-05
7.38511e-05
6.87782e-05
6.3223e-05
5.74892e-05
4.65518e-05
6.12886e-05
7.035e-05
7.80319e-05
8.41396e-05
8.92821e-05
9.34209e-05
9.62904e-05
9.73273e-05
9.62071e-05
9.22432e-05
8.98452e-05
8.7744e-05
8.53505e-05
8.25148e-05
7.91233e-05
7.50555e-05
7.0232e-05
6.45404e-05
5.73913e-05
4.84571e-05
3.63416e-05
3.81098e-05
3.70631e-05
3.43415e-05
3.09104e-05
2.4197e-05
1.07133e-05
8.23337e-06
8.13077e-06
8.01328e-06
8.25999e-06
8.5703e-06
9.81501e-06
1.73397e-05
2.54291e-05
2.94794e-05
3.21405e-05
3.4381e-05
3.58951e-05
3.43385e-05
3.75357e-05
4.45039e-05
4.33415e-05
3.75227e-05
3.25312e-05
2.71607e-05
1.74141e-05
1.31792e-05
1.28292e-05
1.2963e-05
1.33654e-05
1.38053e-05
1.4924e-05
1.89028e-05
2.53544e-05
2.98155e-05
3.35212e-05
3.91096e-05
4.39209e-05
3.72781e-05
3.99623e-05
5.19789e-05
5.2611e-05
4.68845e-05
3.63785e-05
2.74611e-05
2.03085e-05
1.73499e-05
1.62318e-05
1.57885e-05
1.60347e-05
1.63504e-05
1.72265e-05
1.92184e-05
2.28288e-05
2.69459e-05
3.36331e-05
4.39742e-05
5.02414e-05
3.939e-05
4.3096e-05
5.92955e-05
6.1277e-05
5.57299e-05
4.13944e-05
2.93071e-05
2.33366e-05
2.00202e-05
1.76589e-05
1.61884e-05
1.63634e-05
1.71468e-05
1.81415e-05
1.97204e-05
2.23886e-05
2.61396e-05
3.5564e-05
5.02692e-05
5.607e-05
4.08084e-05
4.70129e-05
6.47523e-05
6.6814e-05
6.21672e-05
4.78224e-05
3.41443e-05
2.78957e-05
2.37267e-05
1.98565e-05
1.72326e-05
1.68433e-05
1.77508e-05
1.92174e-05
2.13846e-05
2.40217e-05
2.81882e-05
3.91319e-05
5.4597e-05
5.96742e-05
4.19955e-05
5.08344e-05
6.73805e-05
6.86883e-05
6.45002e-05
5.41034e-05
4.09991e-05
3.39367e-05
2.85222e-05
2.34756e-05
2.03348e-05
1.98545e-05
2.07655e-05
2.23391e-05
2.48542e-05
2.83282e-05
3.33542e-05
4.28484e-05
5.54699e-05
6.01381e-05
4.32348e-05
5.45383e-05
6.80318e-05
6.78607e-05
6.31625e-05
5.68307e-05
4.85437e-05
4.19543e-05
3.58487e-05
2.99361e-05
2.62957e-05
2.58818e-05
2.72299e-05
2.92587e-05
3.18239e-05
3.47426e-05
3.85376e-05
4.47972e-05
5.39716e-05
5.83163e-05
4.48411e-05
5.84651e-05
6.91544e-05
6.99185e-05
6.651e-05
6.41512e-05
6.13872e-05
5.72199e-05
5.0817e-05
4.27589e-05
3.71843e-05
3.67097e-05
3.94201e-05
4.30765e-05
4.63237e-05
4.82762e-05
4.91959e-05
5.20006e-05
5.63072e-05
5.76139e-05
4.70385e-05
6.3131e-05
7.58896e-05
8.75655e-05
9.88301e-05
0.00010665
0.000112359
0.000114597
0.000106437
9.15872e-05
7.96597e-05
7.90862e-05
8.48357e-05
9.1892e-05
9.69082e-05
9.73189e-05
9.21788e-05
8.34912e-05
7.27667e-05
6.28445e-05
4.99049e-05
6.77345e-05
7.80319e-05
8.67634e-05
9.40503e-05
0.000100562
0.000106216
0.000110426
0.00011228
0.000111219
0.000106858
0.000103231
0.000100277
9.69855e-05
9.31359e-05
8.86014e-05
8.32937e-05
7.72374e-05
7.04527e-05
6.23796e-05
5.25883e-05
3.32866e-05
3.48971e-05
3.43415e-05
3.24265e-05
2.93297e-05
2.29716e-05
1.08939e-05
8.59807e-06
8.87698e-06
9.03212e-06
9.47162e-06
9.70836e-06
1.05972e-05
1.79803e-05
2.54509e-05
2.92973e-05
3.1793e-05
3.37469e-05
3.47257e-05
3.27424e-05
3.14539e-05
3.76396e-05
3.75227e-05
3.45325e-05
3.10241e-05
2.58745e-05
1.73771e-05
1.41819e-05
1.42238e-05
1.51603e-05
1.58875e-05
1.58239e-05
1.62469e-05
1.98254e-05
2.59426e-05
3.0373e-05
3.40846e-05
3.88219e-05
4.21485e-05
3.47794e-05
3.26767e-05
4.51113e-05
4.68845e-05
4.25613e-05
3.46583e-05
2.69266e-05
2.05788e-05
1.8154e-05
1.74507e-05
1.80581e-05
1.89028e-05
1.89547e-05
1.90965e-05
2.08119e-05
2.46139e-05
2.963e-05
3.65096e-05
4.50445e-05
4.98231e-05
3.70745e-05
3.76396e-05
5.38511e-05
5.57299e-05
5.0427e-05
3.94666e-05
2.92173e-05
2.33819e-05
2.05239e-05
1.89097e-05
1.86258e-05
1.98995e-05
2.02308e-05
2.01819e-05
2.12914e-05
2.40192e-05
2.91852e-05
3.94569e-05
5.18636e-05
5.72607e-05
3.91948e-05
4.4278e-05
6.25727e-05
6.21672e-05
5.60896e-05
4.41356e-05
3.25789e-05
2.64679e-05
2.28764e-05
1.99976e-05
1.81582e-05
1.80494e-05
1.85515e-05
1.93446e-05
2.10846e-05
2.36906e-05
2.85704e-05
4.02752e-05
5.57343e-05
6.23163e-05
4.12947e-05
5.02919e-05
6.83475e-05
6.45002e-05
5.7589e-05
4.72248e-05
3.63889e-05
3.00399e-05
2.5659e-05
2.18842e-05
1.92855e-05
1.85546e-05
1.8787e-05
1.96709e-05
2.16894e-05
2.44325e-05
2.88944e-05
3.97741e-05
5.59396e-05
6.39165e-05
4.34194e-05
5.57107e-05
7.08133e-05
6.31625e-05
5.62812e-05
4.87386e-05
4.10664e-05
3.56678e-05
3.12051e-05
2.70244e-05
2.40212e-05
2.32945e-05
2.39387e-05
2.50638e-05
2.66547e-05
2.84741e-05
3.1391e-05
3.90845e-05
5.25065e-05
6.19276e-05
4.57751e-05
6.11279e-05
7.27486e-05
6.651e-05
6.25621e-05
6.12826e-05
6.02111e-05
5.84484e-05
5.40431e-05
4.69905e-05
4.07456e-05
3.94668e-05
4.20683e-05
4.58146e-05
4.85305e-05
4.87699e-05
4.7157e-05
4.84611e-05
5.47864e-05
5.96706e-05
4.87175e-05
6.70765e-05
8.14332e-05
9.88301e-05
0.000111289
0.000122894
0.000135035
0.000140987
0.00013236
0.000115404
0.000100169
9.69617e-05
0.000102946
0.000111523
0.000117173
0.000115923
0.000106317
9.4773e-05
8.16252e-05
6.65859e-05
5.24141e-05
7.24981e-05
8.41396e-05
9.40503e-05
0.00010275
0.00011108
0.000118597
0.000124484
0.000127793
0.00012814
0.000124687
0.000118424
0.000113524
0.000108675
0.00010345
9.75416e-05
9.07249e-05
8.31704e-05
7.52169e-05
6.62187e-05
5.55954e-05
2.98771e-05
3.11252e-05
3.09104e-05
2.93297e-05
2.63207e-05
1.9228e-05
9.78967e-06
8.77459e-06
9.36529e-06
9.99267e-06
1.04573e-05
1.03774e-05
1.07141e-05
1.70702e-05
2.44077e-05
2.80699e-05
3.03044e-05
3.17545e-05
3.22206e-05
3.02062e-05
2.64092e-05
3.16674e-05
3.25312e-05
3.10241e-05
2.79967e-05
2.25908e-05
1.65185e-05
1.43177e-05
1.55522e-05
1.76691e-05
1.7863e-05
1.66775e-05
1.65916e-05
1.95218e-05
2.50961e-05
2.92774e-05
3.24295e-05
3.57647e-05
3.77716e-05
3.07783e-05
2.31031e-05
3.26194e-05
3.63785e-05
3.46583e-05
2.97099e-05
2.41952e-05
1.99608e-05
1.82718e-05
1.836e-05
2.12047e-05
2.18827e-05
2.01556e-05
1.98046e-05
2.13485e-05
2.49988e-05
2.99702e-05
3.60724e-05
4.27268e-05
4.62091e-05
3.33776e-05
3.11073e-05
3.85899e-05
4.13944e-05
3.94666e-05
3.30494e-05
2.65524e-05
2.26735e-05
2.06681e-05
2.01621e-05
2.22023e-05
2.43889e-05
2.23362e-05
2.15984e-05
2.26141e-05
2.54695e-05
3.11707e-05
4.06533e-05
5.09669e-05
5.59377e-05
3.68455e-05
4.07593e-05
4.98558e-05
4.78224e-05
4.41356e-05
3.68778e-05
2.96227e-05
2.53559e-05
2.26834e-05
2.10736e-05
2.15471e-05
2.34419e-05
2.20424e-05
2.11236e-05
2.25749e-05
2.53612e-05
3.0881e-05
4.18493e-05
5.52342e-05
6.31636e-05
4.01734e-05
4.91776e-05
6.50836e-05
5.41034e-05
4.72248e-05
3.99713e-05
3.29646e-05
2.83185e-05
2.49168e-05
2.25774e-05
2.23153e-05
2.33819e-05
2.21417e-05
2.08595e-05
2.22423e-05
2.49494e-05
2.95694e-05
3.98574e-05
5.50357e-05
6.65135e-05
4.31784e-05
5.6314e-05
7.40084e-05
5.68307e-05
4.87386e-05
4.32012e-05
3.82295e-05
3.42843e-05
3.07906e-05
2.81508e-05
2.75881e-05
2.8515e-05
2.79295e-05
2.68021e-05
2.70753e-05
2.82136e-05
3.05116e-05
3.7784e-05
5.1147e-05
6.44792e-05
4.62714e-05
6.30796e-05
7.70066e-05
6.41512e-05
6.12826e-05
6.24495e-05
6.36964e-05
6.32059e-05
5.88751e-05
5.18323e-05
4.63372e-05
4.51835e-05
4.68343e-05
5.03123e-05
5.27295e-05
5.19097e-05
4.85703e-05
4.86834e-05
5.33625e-05
6.12883e-05
4.97319e-05
7.00469e-05
8.62977e-05
0.00010665
0.000122894
0.000142458
0.000159026
0.000164549
0.000151227
0.000130126
0.000112979
0.00010724
0.000113333
0.000124843
0.000133219
0.000131878
0.000118727
0.000101945
8.7537e-05
6.91607e-05
5.40591e-05
7.61597e-05
8.92821e-05
0.000100562
0.00011108
0.000121436
0.00013087
0.000138717
0.000144235
0.00014706
0.000145668
0.000135899
0.00012806
0.000120857
0.000113688
0.00010604
9.75762e-05
8.84689e-05
7.91782e-05
6.92217e-05
5.77504e-05
1.88887e-05
2.28648e-05
2.4197e-05
2.29716e-05
1.9228e-05
1.14889e-05
8.29423e-06
8.82077e-06
9.84572e-06
1.11079e-05
1.12457e-05
1.0687e-05
1.0563e-05
1.47288e-05
2.24055e-05
2.59723e-05
2.7961e-05
2.89138e-05
2.88386e-05
2.6969e-05
1.96636e-05
2.59886e-05
2.71607e-05
2.58745e-05
2.25908e-05
1.81104e-05
1.56509e-05
1.42038e-05
1.73252e-05
2.04914e-05
1.89922e-05
1.65898e-05
1.62876e-05
1.85116e-05
2.31288e-05
2.69589e-05
2.9377e-05
3.10783e-05
3.14091e-05
2.56569e-05
1.93767e-05
2.4875e-05
2.74611e-05
2.69266e-05
2.41952e-05
2.11308e-05
1.89446e-05
1.79677e-05
2.01712e-05
2.54949e-05
2.35707e-05
1.99863e-05
1.94736e-05
2.09468e-05
2.38911e-05
2.79328e-05
3.23013e-05
3.64527e-05
3.84133e-05
2.89904e-05
2.20004e-05
2.71251e-05
2.93071e-05
2.92173e-05
2.65524e-05
2.36527e-05
2.15983e-05
2.06441e-05
2.24423e-05
2.88774e-05
2.82061e-05
2.28398e-05
2.17386e-05
2.28734e-05
2.54389e-05
3.02513e-05
3.75092e-05
4.54271e-05
5.01049e-05
3.42382e-05
3.7374e-05
3.78544e-05
3.41443e-05
3.25789e-05
2.96227e-05
2.64093e-05
2.40431e-05
2.26422e-05
2.38557e-05
3.02318e-05
3.19582e-05
2.463e-05
2.22601e-05
2.3649e-05
2.64721e-05
3.16312e-05
4.0643e-05
5.15883e-05
6.08437e-05
3.86933e-05
4.75229e-05
5.25328e-05
4.09991e-05
3.63889e-05
3.29646e-05
2.95922e-05
2.67787e-05
2.48641e-05
2.59185e-05
3.26142e-05
3.50342e-05
2.64937e-05
2.25024e-05
2.35658e-05
2.64956e-05
3.11581e-05
3.99711e-05
5.25748e-05
6.7576e-05
4.25036e-05
5.6165e-05
7.24655e-05
4.85437e-05
4.10664e-05
3.82295e-05
3.59101e-05
3.35263e-05
3.16202e-05
3.28149e-05
3.99253e-05
4.21665e-05
3.3509e-05
2.86856e-05
2.82496e-05
2.95785e-05
3.21066e-05
3.83804e-05
4.99084e-05
6.63088e-05
4.61924e-05
6.40967e-05
7.90372e-05
6.13872e-05
6.02111e-05
6.36964e-05
6.68141e-05
6.69453e-05
6.30158e-05
5.87002e-05
6.01238e-05
5.75455e-05
5.17472e-05
5.28985e-05
5.49698e-05
5.41568e-05
5.06999e-05
5.00363e-05
5.36032e-05
6.24182e-05
4.99328e-05
7.19781e-05
8.98076e-05
0.000112359
0.000135035
0.000159026
0.00017546
0.000175488
0.000158495
0.000140266
0.000128573
0.000117781
0.000119017
0.000131649
0.000142403
0.000141508
0.000126436
0.00010631
8.88132e-05
6.96035e-05
5.46275e-05
7.88204e-05
9.34209e-05
0.000106216
0.000118597
0.00013087
0.000142397
0.000152876
0.000162052
0.000169574
0.000172357
0.000157456
0.000144696
0.000133755
0.000123761
0.000113849
0.000103484
9.27742e-05
8.21803e-05
7.13242e-05
5.90917e-05
7.30278e-06
9.40746e-06
1.07133e-05
1.08939e-05
9.78967e-06
8.29423e-06
8.21959e-06
8.77441e-06
1.06117e-05
1.25681e-05
1.20421e-05
1.09189e-05
1.05185e-05
1.18998e-05
1.93148e-05
2.3067e-05
2.49e-05
2.55299e-05
2.50358e-05
2.32952e-05
9.45787e-06
1.54911e-05
1.74141e-05
1.73771e-05
1.65185e-05
1.56509e-05
1.40612e-05
1.476e-05
2.05585e-05
2.44492e-05
2.03154e-05
1.64128e-05
1.5794e-05
1.75959e-05
2.04708e-05
2.38064e-05
2.55885e-05
2.58541e-05
2.41733e-05
1.84675e-05
1.38033e-05
1.83979e-05
2.03085e-05
2.05788e-05
1.99608e-05
1.89446e-05
1.7829e-05
1.8306e-05
2.5468e-05
3.31308e-05
2.60497e-05
1.96178e-05
1.8688e-05
2.0014e-05
2.18444e-05
2.43874e-05
2.64964e-05
2.74838e-05
2.71461e-05
2.47708e-05
2.28028e-05
2.33508e-05
2.33366e-05
2.33819e-05
2.26735e-05
2.15983e-05
2.07198e-05
2.17869e-05
3.04574e-05
4.47711e-05
3.40082e-05
2.29032e-05
2.10384e-05
2.21242e-05
2.388e-05
2.66513e-05
3.03223e-05
3.41188e-05
3.78979e-05
3.13883e-05
3.55138e-05
3.27178e-05
2.78957e-05
2.64679e-05
2.53559e-05
2.40431e-05
2.30699e-05
2.44764e-05
3.54047e-05
5.64587e-05
4.47434e-05
2.64177e-05
2.22779e-05
2.35213e-05
2.58674e-05
2.93909e-05
3.50594e-05
4.27975e-05
5.37843e-05
3.6853e-05
4.58423e-05
4.52579e-05
3.39367e-05
3.00399e-05
2.83185e-05
2.67787e-05
2.56613e-05
2.76499e-05
4.1804e-05
6.93451e-05
5.62005e-05
3.0524e-05
2.33411e-05
2.41598e-05
2.69815e-05
3.0886e-05
3.73736e-05
4.74993e-05
6.59022e-05
4.13345e-05
5.50693e-05
6.46443e-05
4.19543e-05
3.56678e-05
3.42843e-05
3.35263e-05
3.31197e-05
3.63518e-05
5.42521e-05
8.62207e-05
7.01749e-05
3.88179e-05
2.956e-05
2.88569e-05
3.04962e-05
3.31138e-05
3.81373e-05
4.73001e-05
6.64183e-05
4.54025e-05
6.38131e-05
7.64659e-05
5.72199e-05
5.84484e-05
6.32059e-05
6.69453e-05
6.81298e-05
6.93452e-05
8.73252e-05
0.000114161
8.99315e-05
5.58987e-05
5.25611e-05
5.44934e-05
5.42853e-05
5.1676e-05
5.04902e-05
5.25712e-05
6.17153e-05
4.92801e-05
7.2615e-05
9.06412e-05
0.000114597
0.000140987
0.000164549
0.000175488
0.000170321
0.0001591
0.000161253
0.00016866
0.000142013
0.00012413
0.000131789
0.000143412
0.000143432
0.000128039
0.000106224
8.62559e-05
6.79499e-05
5.42228e-05
8.04594e-05
9.62904e-05
0.000110426
0.000124484
0.000138717
0.000152876
0.000167313
0.000182616
0.000198644
0.000208777
0.000186042
0.000164609
0.000147677
0.000133646
0.000120842
0.000108283
9.58903e-05
8.41e-05
7.24601e-05
5.96463e-05
5.4791e-06
7.43672e-06
8.23337e-06
8.59807e-06
8.77459e-06
8.82077e-06
8.77441e-06
9.60755e-06
1.18886e-05
1.4287e-05
1.34306e-05
1.1793e-05
1.08609e-05
1.0935e-05
1.49133e-05
1.92707e-05
2.10593e-05
2.1421e-05
2.05197e-05
1.82394e-05
7.15716e-06
1.12383e-05
1.31792e-05
1.41819e-05
1.43177e-05
1.42038e-05
1.476e-05
1.80382e-05
2.74442e-05
3.4098e-05
2.54381e-05
1.89119e-05
1.62535e-05
1.68241e-05
1.79173e-05
2.01316e-05
2.1354e-05
2.0736e-05
1.79451e-05
1.39864e-05
1.15124e-05
1.52088e-05
1.73499e-05
1.8154e-05
1.82718e-05
1.79677e-05
1.8306e-05
2.35172e-05
4.24579e-05
6.15512e-05
4.34287e-05
2.39905e-05
1.90183e-05
1.92708e-05
1.98979e-05
2.08669e-05
2.1396e-05
2.11016e-05
2.13583e-05
2.13901e-05
2.11362e-05
1.9988e-05
2.00202e-05
2.05239e-05
2.06681e-05
2.06441e-05
2.17869e-05
3.01196e-05
5.99192e-05
9.59039e-05
6.56843e-05
2.97995e-05
2.13148e-05
2.1223e-05
2.19066e-05
2.2707e-05
2.36383e-05
2.52405e-05
2.98037e-05
2.89192e-05
3.26758e-05
2.76382e-05
2.37267e-05
2.28764e-05
2.26834e-05
2.26422e-05
2.44764e-05
3.69906e-05
8.169e-05
0.000138066
9.24571e-05
3.69159e-05
2.30791e-05
2.27865e-05
2.40971e-05
2.56436e-05
2.81532e-05
3.33031e-05
4.43252e-05
3.48256e-05
4.33615e-05
3.78927e-05
2.85222e-05
2.5659e-05
2.49168e-05
2.48641e-05
2.76499e-05
4.57893e-05
0.000108
0.000182714
0.000122232
4.58026e-05
2.52409e-05
2.41176e-05
2.6014e-05
2.84832e-05
3.24367e-05
4.06914e-05
6.06328e-05
3.96202e-05
5.28611e-05
5.41219e-05
3.58487e-05
3.12051e-05
3.07906e-05
3.16202e-05
3.63518e-05
6.14947e-05
0.00014116
0.00022445
0.000151486
5.79437e-05
3.18274e-05
2.90671e-05
3.02091e-05
3.22047e-05
3.5645e-05
4.29865e-05
6.32071e-05
4.37711e-05
6.19874e-05
7.08701e-05
5.0817e-05
5.40431e-05
5.88751e-05
6.30158e-05
6.93452e-05
9.58851e-05
0.000180782
0.000243038
0.000172304
7.42792e-05
5.14617e-05
5.16972e-05
5.19626e-05
5.01485e-05
4.86609e-05
4.94557e-05
5.8573e-05
4.77146e-05
7.14085e-05
8.63614e-05
0.000106437
0.00013236
0.000151227
0.000158495
0.0001591
0.000173021
0.00022013
0.000256763
0.000200502
0.000137926
0.000127819
0.000135734
0.000135888
0.000121995
0.000100969
8.04731e-05
6.41229e-05
5.2839e-05
8.08581e-05
9.73273e-05
0.00011228
0.000127793
0.000144235
0.000162052
0.000182616
0.00020779
0.00023754
0.000257044
0.000224887
0.000188844
0.000162617
0.000142971
0.000126557
0.000111551
9.74834e-05
8.4659e-05
7.24942e-05
5.93841e-05
4.96257e-06
6.99888e-06
8.13077e-06
8.87698e-06
9.36529e-06
9.84572e-06
1.06117e-05
1.18886e-05
1.29994e-05
1.59502e-05
1.52006e-05
1.43104e-05
1.27155e-05
1.13511e-05
1.1964e-05
1.40382e-05
1.61982e-05
1.63683e-05
1.47335e-05
1.21587e-05
6.71444e-06
1.0998e-05
1.28292e-05
1.42238e-05
1.55522e-05
1.73252e-05
2.05585e-05
2.74442e-05
4.34098e-05
8.2866e-05
6.24994e-05
3.32339e-05
2.23125e-05
1.82459e-05
1.72205e-05
1.69848e-05
1.72962e-05
1.65905e-05
1.44941e-05
1.16706e-05
8.67602e-06
1.39452e-05
1.62318e-05
1.74507e-05
1.836e-05
2.01712e-05
2.5468e-05
4.24579e-05
8.38826e-05
0.000184526
0.000123977
5.46578e-05
2.5605e-05
2.03606e-05
1.91183e-05
1.85975e-05
1.81801e-05
1.78337e-05
1.87867e-05
1.9576e-05
1.57804e-05
1.65335e-05
1.76589e-05
1.89097e-05
2.01621e-05
2.24423e-05
3.04574e-05
5.99192e-05
0.00013591
0.000283744
0.000175408
7.40366e-05
2.78248e-05
2.16993e-05
2.06527e-05
2.0243e-05
2.01176e-05
2.14857e-05
2.64599e-05
2.72491e-05
2.82954e-05
2.23644e-05
1.98565e-05
1.99976e-05
2.10736e-05
2.38557e-05
3.54047e-05
8.169e-05
0.000201002
0.000361024
0.000223613
9.46323e-05
3.05088e-05
2.30242e-05
2.24988e-05
2.27546e-05
2.39147e-05
2.83717e-05
3.92609e-05
3.29594e-05
3.94186e-05
3.09205e-05
2.34756e-05
2.18842e-05
2.25774e-05
2.59185e-05
4.1804e-05
0.000108
0.000270352
0.000413882
0.00026534
0.000115063
3.45382e-05
2.49117e-05
2.46793e-05
2.5755e-05
2.82159e-05
3.5514e-05
5.41528e-05
3.74444e-05
4.9083e-05
4.40541e-05
2.99361e-05
2.70244e-05
2.81508e-05
3.28149e-05
5.42521e-05
0.00014116
0.000327901
0.000434908
0.000295818
0.000130535
4.19089e-05
3.03353e-05
2.94886e-05
3.02461e-05
3.22971e-05
3.84397e-05
5.77328e-05
4.12859e-05
5.82117e-05
6.30861e-05
4.27589e-05
4.69905e-05
5.18323e-05
5.87002e-05
8.73252e-05
0.000180782
0.000339923
0.000420428
0.000309336
0.000133568
5.51717e-05
4.84949e-05
4.82334e-05
4.66858e-05
4.49089e-05
4.4865e-05
5.39194e-05
4.51137e-05
6.79898e-05
7.71174e-05
9.15872e-05
0.000115404
0.000130126
0.000140266
0.000161253
0.00022013
0.000326836
0.000381998
0.000304901
0.000175806
0.000129083
0.000124932
0.000123077
0.000110965
9.21269e-05
7.27085e-05
5.87108e-05
5.02364e-05
7.98164e-05
9.62071e-05
0.000111219
0.00012814
0.00014706
0.000169574
0.000198644
0.00023754
0.000284311
0.00030364
0.000273685
0.000217582
0.000178079
0.000151086
0.000130491
0.000112932
9.72656e-05
8.3546e-05
7.10946e-05
5.78692e-05
4.72671e-06
6.71712e-06
8.01328e-06
9.03212e-06
9.99267e-06
1.11079e-05
1.25681e-05
1.4287e-05
1.59502e-05
1.67074e-05
1.71653e-05
1.69265e-05
1.57242e-05
1.35589e-05
1.18777e-05
1.1515e-05
1.20564e-05
1.25725e-05
1.21643e-05
1.06752e-05
6.60962e-06
1.0578e-05
1.2963e-05
1.51603e-05
1.76691e-05
2.04914e-05
2.44492e-05
3.4098e-05
8.2866e-05
6.92428e-05
6.58729e-05
5.94794e-05
2.8005e-05
2.34061e-05
1.91286e-05
1.66216e-05
1.52915e-05
1.43648e-05
1.3591e-05
1.16787e-05
7.28103e-06
1.33784e-05
1.57885e-05
1.80581e-05
2.12047e-05
2.54949e-05
3.31308e-05
6.15512e-05
0.000184526
0.000107721
0.000110985
0.00011455
3.44204e-05
2.45414e-05
2.00545e-05
1.80139e-05
1.70345e-05
1.69344e-05
1.84566e-05
1.95665e-05
1.27706e-05
1.41504e-05
1.61884e-05
1.86258e-05
2.22023e-05
2.88774e-05
4.47711e-05
9.59039e-05
0.000283744
0.000135112
0.000162333
0.000154292
3.89204e-05
2.4424e-05
2.0448e-05
1.90477e-05
1.88713e-05
2.07295e-05
2.59621e-05
2.67367e-05
2.65847e-05
1.97994e-05
1.72326e-05
1.81582e-05
2.15471e-05
3.02318e-05
5.64587e-05
0.000138066
0.000361024
0.000158372
0.000221075
0.00018532
4.28138e-05
2.50391e-05
2.16911e-05
2.10305e-05
2.21141e-05
2.6925e-05
3.78446e-05
3.19396e-05
3.7455e-05
2.78994e-05
2.03348e-05
1.92855e-05
2.23153e-05
3.26142e-05
6.93451e-05
0.000182714
0.000413882
0.000180347
0.000283573
0.00020689
4.732e-05
2.72207e-05
2.40176e-05
2.37655e-05
2.55989e-05
3.24928e-05
4.92386e-05
3.59419e-05
4.65964e-05
3.96698e-05
2.62957e-05
2.40212e-05
2.75881e-05
3.99253e-05
8.62207e-05
0.00022445
0.000434908
0.000200499
0.000339515
0.000212861
5.38861e-05
3.35696e-05
2.99105e-05
2.88785e-05
2.96513e-05
3.47842e-05
5.26608e-05
3.94153e-05
5.50459e-05
5.88862e-05
3.71843e-05
4.07456e-05
4.63372e-05
6.01238e-05
0.000114161
0.000243038
0.000420428
0.000217275
0.000374952
0.000193037
6.08804e-05
4.86423e-05
4.69892e-05
4.44529e-05
4.18158e-05
4.09943e-05
5.00287e-05
4.29931e-05
6.40042e-05
6.91462e-05
7.96597e-05
0.000100169
0.000112979
0.000128573
0.00016866
0.000256763
0.000381998
0.000240922
0.000368865
0.000215042
0.000135408
0.000121687
0.000116745
0.000103387
8.5299e-05
6.71232e-05
5.48495e-05
4.78688e-05
7.64053e-05
9.22432e-05
0.000106858
0.000124687
0.000145668
0.000172357
0.000208777
0.000257044
0.00030364
0.000235147
0.000301614
0.000240574
0.000190535
0.000157424
0.000133138
0.000113102
9.58843e-05
8.14284e-05
6.8721e-05
5.55428e-05
4.62576e-06
6.74947e-06
8.25999e-06
9.47162e-06
1.04573e-05
1.12457e-05
1.20421e-05
1.34306e-05
1.52006e-05
1.71653e-05
1.92455e-05
1.88477e-05
1.73941e-05
1.58325e-05
1.43856e-05
1.31276e-05
1.25946e-05
1.2572e-05
1.20792e-05
1.04871e-05
6.61468e-06
1.06232e-05
1.33654e-05
1.58875e-05
1.7863e-05
1.89922e-05
2.03154e-05
2.54381e-05
6.24994e-05
6.58729e-05
5.66131e-05
3.49435e-05
2.50404e-05
2.39914e-05
2.18554e-05
1.84077e-05
1.49379e-05
1.35787e-05
1.41999e-05
1.28449e-05
7.64058e-06
1.35462e-05
1.60347e-05
1.89028e-05
2.18827e-05
2.35707e-05
2.60497e-05
4.34287e-05
0.000123977
0.000110985
0.000103709
6.22564e-05
2.90191e-05
2.56489e-05
2.13731e-05
1.74663e-05
1.60103e-05
1.69238e-05
1.98054e-05
2.09084e-05
1.44163e-05
1.41357e-05
1.63634e-05
1.98995e-05
2.43889e-05
2.82061e-05
3.40082e-05
6.56843e-05
0.000175408
0.000162333
0.000160026
8.03101e-05
3.16298e-05
2.59123e-05
2.08435e-05
1.80561e-05
1.80878e-05
2.10036e-05
2.7261e-05
2.7502e-05
2.75445e-05
2.01501e-05
1.68433e-05
1.80494e-05
2.34419e-05
3.19582e-05
4.47434e-05
9.24571e-05
0.000223613
0.000221075
0.00022004
9.3503e-05
3.36197e-05
2.63998e-05
2.17293e-05
1.97865e-05
2.09285e-05
2.62691e-05
3.74123e-05
3.22035e-05
3.79274e-05
2.83276e-05
1.98545e-05
1.85546e-05
2.33819e-05
3.50342e-05
5.62005e-05
0.000122232
0.00026534
0.000283573
0.000275367
0.000102239
3.56082e-05
2.82222e-05
2.43056e-05
2.24664e-05
2.37048e-05
3.0475e-05
4.72043e-05
3.59279e-05
4.66778e-05
4.02405e-05
2.58818e-05
2.32945e-05
2.8515e-05
4.21665e-05
7.01749e-05
0.000151486
0.000295818
0.000339515
0.000314817
0.000106752
4.04241e-05
3.42445e-05
3.1398e-05
2.85998e-05
2.7906e-05
3.193e-05
4.94416e-05
3.93275e-05
5.48177e-05
5.84425e-05
3.67097e-05
3.94668e-05
4.51835e-05
5.75455e-05
8.99315e-05
0.000172304
0.000309336
0.000374952
0.000326027
0.000101691
5.29696e-05
5.0968e-05
4.94455e-05
4.56213e-05
4.143e-05
3.9678e-05
4.84802e-05
4.29496e-05
6.34887e-05
6.89203e-05
7.90862e-05
9.69617e-05
0.00010724
0.000117781
0.000142013
0.000200502
0.000304901
0.000368865
0.000304525
0.000162277
0.000137056
0.000137764
0.00012747
0.000109515
8.92931e-05
7.0514e-05
5.64021e-05
4.81389e-05
7.50522e-05
8.98452e-05
0.000103231
0.000118424
0.000135899
0.000157456
0.000186042
0.000224887
0.000273685
0.000301614
0.0002717
0.000214579
0.000177658
0.000151549
0.00013016
0.000111597
9.53576e-05
8.15127e-05
6.87875e-05
5.55331e-05
4.5692e-06
6.9557e-06
8.5703e-06
9.70836e-06
1.03774e-05
1.0687e-05
1.09189e-05
1.1793e-05
1.43104e-05
1.69265e-05
1.88477e-05
1.99207e-05
2.00893e-05
1.96342e-05
1.90073e-05
1.83432e-05
1.7552e-05
1.64274e-05
1.4558e-05
1.09743e-05
6.81878e-06
1.09082e-05
1.38053e-05
1.58239e-05
1.66775e-05
1.65898e-05
1.64128e-05
1.89119e-05
3.32339e-05
5.94794e-05
3.49435e-05
2.49676e-05
2.51364e-05
2.44906e-05
2.39123e-05
2.28325e-05
1.99224e-05
1.60479e-05
1.40476e-05
1.33587e-05
8.28446e-06
1.3703e-05
1.63504e-05
1.89547e-05
2.01556e-05
1.99863e-05
1.96178e-05
2.39905e-05
5.46578e-05
0.00011455
6.22564e-05
2.89692e-05
2.74732e-05
2.64573e-05
2.38656e-05
1.91728e-05
1.54143e-05
1.56843e-05
1.92516e-05
2.14272e-05
1.68445e-05
1.53584e-05
1.71468e-05
2.02308e-05
2.23362e-05
2.28398e-05
2.29032e-05
2.97995e-05
7.40366e-05
0.000154292
8.03101e-05
3.2228e-05
2.86732e-05
2.73036e-05
2.32379e-05
1.79846e-05
1.71472e-05
2.04447e-05
2.74362e-05
2.78816e-05
2.90794e-05
2.14793e-05
1.77508e-05
1.85515e-05
2.20424e-05
2.463e-05
2.64177e-05
3.69159e-05
9.46323e-05
0.00018532
9.3503e-05
3.48527e-05
2.93099e-05
2.79442e-05
2.38261e-05
1.93612e-05
1.9878e-05
2.55113e-05
3.75905e-05
3.24466e-05
3.89926e-05
2.99041e-05
2.07655e-05
1.8787e-05
2.21417e-05
2.64937e-05
3.0524e-05
4.58026e-05
0.000115063
0.00020689
0.000102239
3.6926e-05
2.9667e-05
2.86219e-05
2.55633e-05
2.18684e-05
2.22503e-05
2.91133e-05
4.69778e-05
3.60573e-05
4.7427e-05
4.36055e-05
2.72299e-05
2.39387e-05
2.79295e-05
3.3509e-05
3.88179e-05
5.79437e-05
0.000130535
0.000212861
0.000106752
4.09934e-05
3.26578e-05
3.21517e-05
3.08302e-05
2.78932e-05
2.63882e-05
3.0193e-05
4.79241e-05
3.94071e-05
5.53205e-05
5.97381e-05
3.94201e-05
4.20683e-05
4.68343e-05
5.17472e-05
5.58987e-05
7.42792e-05
0.000133568
0.000193037
0.000101691
5.6028e-05
5.24899e-05
5.10423e-05
4.85968e-05
4.51894e-05
4.13241e-05
3.98241e-05
4.80958e-05
4.30182e-05
6.37256e-05
7.1724e-05
8.48357e-05
0.000102946
0.000113333
0.000119017
0.00012413
0.000137926
0.000175806
0.000215042
0.000162277
0.000147777
0.000163119
0.000154045
0.0001351
0.000115203
9.50412e-05
7.50708e-05
5.85708e-05
4.82967e-05
7.38162e-05
8.7744e-05
0.000100277
0.000113524
0.00012806
0.000144696
0.000164609
0.000188844
0.000217582
0.000240574
0.000214579
0.000186107
0.000163354
0.000142732
0.000124004
0.000107357
9.266e-05
7.97567e-05
6.75259e-05
5.47206e-05
5.21213e-06
8.057e-06
9.81501e-06
1.05972e-05
1.07141e-05
1.0563e-05
1.05185e-05
1.08609e-05
1.27155e-05
1.57242e-05
1.73941e-05
2.00893e-05
2.18345e-05
2.26004e-05
2.28041e-05
2.26133e-05
2.1966e-05
2.06904e-05
1.86702e-05
1.60441e-05
8.50162e-06
1.24302e-05
1.4924e-05
1.62469e-05
1.65916e-05
1.62876e-05
1.5794e-05
1.62535e-05
2.23125e-05
2.8005e-05
2.50404e-05
2.51364e-05
2.67856e-05
2.76528e-05
2.77567e-05
2.74065e-05
2.58619e-05
2.16092e-05
1.64166e-05
1.39204e-05
1.01876e-05
1.43498e-05
1.72265e-05
1.90965e-05
1.98046e-05
1.94736e-05
1.8688e-05
1.90183e-05
2.5605e-05
3.44204e-05
2.90191e-05
2.74732e-05
2.83891e-05
2.86996e-05
2.76339e-05
2.47738e-05
1.99563e-05
1.72055e-05
1.92279e-05
2.17244e-05
1.89249e-05
1.72581e-05
1.81415e-05
2.01819e-05
2.15984e-05
2.17386e-05
2.10384e-05
2.13148e-05