/*--------------------------------*- C++ -*----------------------------------*\
  =========                 |
  \\      /  F ield         | OpenFOAM: The Open Source CFD Toolbox
   \\    /   O peration     | Website:  https://openfoam.org
    \\  /    A nd           | Version:  8
     \\/     M anipulation  |
\*---------------------------------------------------------------------------*/
FoamFile
{
    version     2.0;
    format      ascii;
    class       surfaceScalarField;
    location    "1200";
    object      phi;
}
// * * * * * * * * * * * * * * * * * * * * * * * * * * * * * * * * * * * * * //

dimensions      [1 0 -1 0 0 0 0];

internalField   nonuniform List<scalar> 
11200
(
0.0034446
-0.00687136
0.0034446
0.00529485
-0.00498871
0.00313846
0.00581612
-0.00316337
0.00264209
0.00480007
-0.0011505
0.00216653
0.0017483
0.00121498
0.00183678
-0.00190994
0.00232772
0.00133043
-0.0022607
-4.68694e-05
0.000397624
-0.00185246
-0.000362605
-4.56327e-05
-0.00142129
-0.000331735
-9.94289e-05
-0.00094996
-0.000375064
-9.62486e-05
-0.000439152
-0.000428744
-8.20508e-05
-7.04889e-05
-0.000368101
-5.54948e-07
0.000128809
-0.00024737
4.80687e-05
-0.00122897
0.000470799
0.000887031
-0.00409731
0.00178512
0.00108324
-0.00619042
0.00102392
0.00106919
-0.00705408
-0.00032443
0.00118809
-0.00652094
-0.00193289
0.00139975
-0.00442354
-0.00370796
0.00161055
-0.00621854
0.00179499
0.00166667
-0.0102047
0.00166667
0.00258056
-0.00764965
0.00174705
0.00277656
-0.0049149
0.00155552
0.00234087
-0.00197196
0.00125715
0.000962262
0.00157984
0.00101372
-0.000463467
0.00285377
0.000899619
-0.00108457
0.000258125
0.000316124
-0.00129091
-0.000142104
-1.41479e-05
-0.0012561
-2.91505e-05
-0.000337391
-0.00102623
-0.000153616
-0.000451317
-0.000748104
-0.000276266
-0.000430594
-0.000660019
-0.00023958
-0.000216603
-0.00104342
-1.5879e-05
0.000151907
-0.00152797
0.000504874
0.000450476
-0.00198462
0.00147491
0.00076687
-0.00290067
0.00122767
0.000712301
-0.00349776
-0.00054061
0.000813266
-0.00316832
-0.00334168
0.00107935
-0.00202648
-0.00605506
0.00120526
-0.0095514
0.00130637
0.000719785
-0.0116443
0.000719785
0.000847941
-0.00889573
0.00111791
0.000617218
-0.00587479
0.0011906
0.000603131
-0.00306738
0.0011095
0.000895746
0.000186336
0.00110087
0.00106307
0.00183409
0.000852326
0.000782877
3.93753e-05
0.000498951
0.000255715
-6.99719e-05
0.000455027
-0.000324688
0.000420555
0.000130695
-0.000580525
0.000374711
-0.00027249
-0.000659702
0.000195411
-0.000392496
-0.000912903
0.000116409
-0.000102785
-0.0012775
4.61159e-05
0.000302597
-0.00133384
9.0188e-06
0.000552182
-0.000923682
0.000256311
0.000808453
-0.000451934
-0.00015148
0.00090741
-0.000217353
-0.00189815
0.00112296
-0.000463068
-0.00435057
0.0012546
-0.000366134
-0.00732663
0.00117463
-0.0110277
0.00111019
0.000212779
-0.0120699
0.000212779
-0.000171095
-0.00937787
0.000866012
-0.000620906
-0.00656418
0.0011392
-0.000828523
-0.00419261
0.00133285
6.03827e-05
-0.00220058
0.001498
0.00112297
-0.0006509
0.00142237
0.001124
-0.00123848
0.00127681
0.000795197
-0.000948344
0.00120717
0.000405607
-0.000191663
0.00100179
0.000201684
-0.000133192
0.00071181
0.00027286
-0.000450584
0.000574809
0.000408622
-0.000725214
0.000705852
0.000512843
-0.000979612
0.000921501
0.000675474
-0.00123605
0.00108244
0.00118884
-0.00152094
0.00126387
0.00167961
-0.00216051
0.00151826
0.00160057
-0.0034238
0.00160468
0.00117185
-0.00533882
0.00141697
0.000589363
-0.00800689
0.00126273
-0.0114903
0.00105196
-9.57237e-05
-0.0118784
-9.57237e-05
-0.000741097
-0.00947167
0.000739159
-0.00124604
-0.00712891
0.00106966
-0.0014044
-0.00531409
0.00127983
-0.00112798
-0.00395184
0.00147484
-0.00032287
-0.00304547
0.00158945
-3.9784e-05
-0.00293927
0.0014177
0.000157997
-0.00254065
0.00139452
0.000433403
-0.00184226
0.00137519
0.000715928
-0.00172023
0.00130451
0.00106532
-0.00203647
0.00123649
0.00146088
-0.0023594
0.00123862
0.00185155
-0.00265017
0.00127989
0.00220222
-0.00293178
0.00134505
0.00253437
-0.00326589
0.0014128
0.00269641
-0.00381002
0.00148747
0.00252938
-0.00473232
0.00147554
0.00200777
-0.00618351
0.0013663
0.00111144
-0.00836694
0.00125638
-0.011383
0.0010041
-0.000293554
-0.0112913
-0.000293554
-0.00111215
-0.00926488
0.000611796
-0.00168823
-0.00744184
0.000889011
-0.00185485
-0.00614656
0.00099909
-0.00163392
-0.00525325
0.00108047
-0.00111839
-0.00470396
0.00114295
-0.000686927
-0.00444828
0.00107754
-0.000179948
-0.00409683
0.00104919
0.00042418
-0.00352445
0.00107805
0.00099346
-0.00338177
0.00109225
0.00154125
-0.00363776
0.00105349
0.00207686
-0.00391162
0.0010166
0.0025743
-0.00415529
0.00100768
0.00298832
-0.00438113
0.00103532
0.00328052
-0.00463109
0.001073
0.00336406
-0.00500272
0.00110915
0.00312949
-0.00563473
0.00113698
0.00250187
-0.00668953
0.00113364
0.00141271
-0.00838549
0.00110771
-0.010867
0.000896674
-0.000513589
-0.0102641
-0.000513589
-0.00150011
-0.0086413
0.000362934
-0.00216382
-0.00731137
0.000533236
-0.00236285
-0.00644681
0.000499271
-0.00213866
-0.00589106
0.000413623
-0.00163194
-0.00557627
0.000365584
-0.00100374
-0.00538143
0.000304933
-0.000289662
-0.00512284
0.000311927
0.000468959
-0.00469422
0.000411141
0.00115919
-0.00456145
0.000489439
0.00181388
-0.00475703
0.000464578
0.00246034
-0.00493968
0.000381595
0.00305937
-0.00507788
0.000323552
0.00355602
-0.00519168
0.0003139
0.00388449
-0.00532297
0.000363406
0.00395869
-0.00554156
0.000464628
0.00366912
-0.00595284
0.000607674
0.00292415
-0.00668409
0.000739521
0.00164836
-0.00792958
0.000819872
-0.00989451
0.000675902
-0.000866787
-0.00853058
-0.000866787
-0.00204018
-0.00727748
-0.00019044
-0.00278512
-0.00640207
-0.000164367
-0.00299852
-0.00592488
-0.000308537
-0.0027444
-0.00565641
-0.000488778
-0.00214715
-0.00552126
-0.00065227
-0.00133069
-0.00542594
-0.000771955
-0.000390329
-0.00525393
-0.000809279
0.000518
-0.00492665
-0.000675901
0.00128518
-0.00477907
-0.000549562
0.00206463
-0.00493669
-0.000599806
0.00284128
-0.0050531
-0.000663237
0.00355135
-0.00510994
-0.000678007
0.00413395
-0.00513266
-0.000641618
0.00452033
-0.0051571
-0.000552259
0.00461464
-0.00523128
-0.000404595
0.00429345
-0.00542751
-0.000204143
0.00344038
-0.00584636
1.53432e-05
0.00194519
-0.00669424
0.000259838
-0.00816825
0.000218923
-0.00152851
-0.00547357
-0.00152851
-0.00292988
-0.00474449
-0.00113163
-0.00372264
-0.00436641
-0.00124291
-0.00391045
-0.00426015
-0.00147694
-0.00359662
-0.00425778
-0.00171247
-0.00289348
-0.00430067
-0.00192374
-0.00190145
-0.00433979
-0.00207819
-0.000717802
-0.00430563
-0.00213195
0.000476991
-0.00412354
-0.00199792
0.00145519
-0.0039677
-0.00178957
0.00246574
-0.00409072
-0.00185652
0.00342846
-0.004122
-0.00189383
0.00426741
-0.00407953
-0.00186936
0.00493154
-0.00400141
-0.00179539
0.00536549
-0.00391651
-0.00167454
0.00548037
-0.00385114
-0.00149503
0.00514415
-0.00384212
-0.00124917
0.00419899
-0.00394505
-0.000956159
0.00248877
-0.00432083
-0.00066319
-0.00517545
-0.000504032
-0.00273679
-0.00273679
-0.00445354
-0.00302776
-0.00522078
-0.00359917
-0.00533255
-0.00414839
-0.00492536
-0.00466497
-0.00411863
-0.00510742
-0.00297892
-0.0054795
-0.00155568
-0.00572889
9.40039e-05
-0.00577322
0.00173516
-0.00560886
0.00317836
-0.00553394
0.00440549
-0.00534913
0.00540158
-0.00507563
0.00615587
-0.0047557
0.00663922
-0.00439986
0.00678336
-0.00399529
0.00647026
-0.00352902
0.00551402
-0.00298882
0.00353242
-0.00233923
-0.00164303
0.00313846
-0.00498871
0.00529485
0.00500276
-0.00372862
0.00500276
0.00562659
-0.00228906
0.00430731
0.00484302
-0.000571538
0.00352162
0.00243725
0.00144361
0.00279893
-0.00103956
0.00279284
0.00201433
-0.00205357
0.000774656
0.000636947
-0.00162419
-0.000502504
2.75127e-05
-0.00122454
-0.000413931
-8.51424e-05
-0.000900386
-0.000351151
-6.92378e-05
-0.000568296
-0.00040379
-1.03396e-05
-0.000315809
-0.00040771
0.000154673
-0.000552135
-0.000168244
0.000452639
-0.00212834
0.000992748
0.00147053
-0.00463593
0.00180287
0.00178798
-0.00646914
0.000961178
0.00194121
-0.00717413
-0.000353565
0.00224665
-0.00658868
-0.00184386
0.00265816
-0.00445241
-0.00361573
0.00309
-0.00603333
0.00337591
0.00174705
-0.00764965
0.00258056
0.00286748
-0.00596949
0.00286748
0.00324416
-0.00374292
0.0026327
0.00281846
-0.00102552
0.00213682
0.00171634
0.00186038
0.00169906
0.00046699
0.00346417
0.00147759
-0.000483722
0.00130648
0.000735
-0.000881611
-0.000183679
6.4932e-05
-0.000972278
-0.000260767
-0.00039988
-0.000982392
-0.000260058
-0.000532291
-0.00100244
-0.000376742
-0.000437592
-0.00113993
-0.000421875
-6.49468e-05
-0.00163195
3.87135e-06
0.000471819
-0.00209636
0.0009467
0.000960935
-0.00270189
0.00190656
0.00126872
-0.00362377
0.00138897
0.00120638
-0.00420491
-0.000291767
0.00133261
-0.00380138
-0.00289965
0.00173161
-0.00246419
-0.00573549
0.00198782
-0.00920381
0.00201267
0.00111791
-0.00889573
0.000847941
0.0016805
-0.00709467
0.0016805
0.00172312
-0.00448451
0.00188957
0.00162057
-0.00150726
0.00169379
0.00154288
0.00155236
0.00148654
0.00147652
0.00307372
0.00130911
0.00106459
0.00135139
0.000865969
0.000430272
0.000405519
0.000500145
-0.00015916
0.000422921
3.64404e-05
-0.000577372
0.000386063
-0.000500396
-0.000962551
0.00022279
-0.000606845
-0.0014308
0.0001734
-0.000229806
-0.00179562
0.000341606
0.000329687
-0.00181592
0.000738508
0.000780672
-0.00156304
0.00135365
0.00110849
-0.00152928
0.00107963
0.00118299
-0.00162545
-0.000480864
0.00140823
-0.00166517
-0.00329604
0.00169069
-0.00118924
-0.00670683
0.00167005
-0.0106309
0.00134801
0.000866012
-0.00937787
-0.000171095
0.00106433
-0.00749131
0.00106433
0.000829053
-0.00472879
0.00161874
0.000638454
-0.00176657
0.00178275
0.000996934
0.000926036
0.00176584
0.00159718
0.00228265
0.00161318
0.00154404
0.00128631
0.00139503
0.00107036
0.00085319
0.00123318
0.000501171
0.00106937
0.000924517
8.54963e-05
0.0010572
0.000456337
-0.000112396
0.000889382
0.000106103
-0.000354629
0.000819766
0.000301718
-0.000678148
0.000828389
0.000758231
-0.000719126
0.000775418
0.0010865
-0.000302218
0.000821288
0.00137932
0.00014464
0.000455192
0.00169584
0.000156166
-0.000890674
0.00200296
-0.000260387
-0.00340069
0.00193817
-0.000418409
-0.00694422
0.00165814
-0.0110259
0.00102855
0.000739159
-0.00947167
-0.000741097
0.000718797
-0.00745059
0.000718797
0.00033633
-0.00470073
0.00142406
7.42888e-05
-0.00195169
0.00172699
0.00036389
0.00018587
0.00192539
0.000974891
0.00138556
0.00187552
0.000983218
0.000997871
0.0016978
0.000708604
0.000946267
0.00157605
0.000501893
0.00126575
0.00138551
0.000437756
0.00129425
0.00113159
0.000484971
0.00110138
0.000977275
0.00055311
0.000943077
0.00104717
0.000606461
0.000820207
0.00123471
0.000670772
0.000624273
0.00143187
0.000919263
0.000339459
0.00164614
0.0011292
-0.000206204
0.00193892
0.000967148
-0.00139821
0.00214512
0.000495037
-0.0035793
0.00201701
5.86396e-05
-0.00688383
0.00163238
-0.0107677
0.000804554
0.000611796
-0.00926488
-0.00111215
0.000425568
-0.00707815
0.000425568
-3.46747e-05
-0.00451779
0.00116631
-0.000224425
-0.00221293
0.00145008
-2.48046e-05
-0.000564584
0.00163129
0.000378961
0.000430775
0.00169396
0.000428383
0.000482261
0.00154372
0.000358465
0.000639365
0.001426
0.000421337
0.000962235
0.00131869
0.000615898
0.000991617
0.00120031
0.000851417
0.000798808
0.00112054
0.00108903
0.000596408
0.00112565
0.00131903
0.000396802
0.00120108
0.00152229
0.000131125
0.0013252
0.00167217
-0.000216109
0.00147869
0.00168003
-0.000787528
0.00168261
0.00141823
-0.00186334
0.00186391
0.000906241
-0.00374539
0.00181172
0.000301468
-0.00663648
0.00146513
-0.0100978
0.000528252
0.000362934
-0.0086413
-0.00150011
3.57687e-05
-0.00642382
3.57687e-05
-0.000482088
-0.00419993
0.000733217
-0.000649821
-0.00251342
0.000967486
-0.000498686
-0.00130914
0.00100703
-0.000123896
-0.000619081
0.00104064
0.000111716
-0.000405106
0.00095668
0.000276432
-0.000144642
0.000931209
0.000471358
0.000222832
0.000955611
0.00072485
0.000293118
0.000934441
0.00101525
9.81559e-05
0.000874822
0.00134636
-0.000154153
0.000801042
0.00168795
-0.000388831
0.000767591
0.00197601
-0.000630553
0.000787514
0.00216236
-0.000925458
0.000886393
0.00216527
-0.00140015
0.00107434
0.00187899
-0.0022618
0.00129241
0.00130489
-0.00372909
0.00129732
0.000551926
-0.00609905
0.00103541
-0.00902282
0.000152823
-0.00019044
-0.00727748
-0.00204018
-0.000737816
-0.00532908
-0.000737816
-0.00126496
-0.00368302
-0.000154132
-0.00146788
-0.00257351
-4.55362e-05
-0.00130177
-0.00184441
-0.000119631
-0.000880213
-0.00145956
-0.000233353
-0.000382104
-0.0012992
-0.000375978
0.000148456
-0.00109719
-0.000387298
0.000582594
-0.000735743
-0.000151471
0.000943811
-0.000632158
1.44892e-05
0.00137266
-0.000823703
-0.000106807
0.00183365
-0.00101992
-0.000258457
0.00228421
-0.00118322
-0.000334181
0.00267719
-0.00133698
-0.000328171
0.00294389
-0.00152663
-0.000217788
0.00294465
-0.00183846
3.29474e-05
0.00263451
-0.00237717
0.000221356
0.00194332
-0.00338524
0.000362685
0.000954421
-0.00508249
0.000232173
-0.007404
-0.000445485
-0.00113163
-0.00474449
-0.00292988
-0.00210488
-0.0033826
-0.00210488
-0.00264032
-0.00249441
-0.00189608
-0.00268782
-0.00201015
-0.0019928
-0.0023662
-0.00174458
-0.00213393
-0.00176893
-0.00160635
-0.00237422
-0.00101472
-0.0015306
-0.002601
-0.000167992
-0.00137192
-0.00270397
0.000619313
-0.00100231
-0.00251866
0.00120554
-0.000757361
-0.0022506
0.00188799
-0.00105093
-0.00231176
0.00255946
-0.00124985
-0.00233538
0.00316113
-0.00136509
-0.00228916
0.00365679
-0.00144101
-0.00218703
0.0040054
-0.00151177
-0.00203802
0.00412037
-0.00161946
-0.001829
0.00389006
-0.00184241
-0.00155363
0.00313935
-0.00229923
-0.00129146
0.00177241
-0.00319773
-0.00118102
-0.00472323
-0.00141239
-0.00302776
-0.00445354
-0.00471906
-0.00471906
-0.00543444
-0.00537822
-0.00550138
-0.00609161
-0.00508486
-0.00682609
-0.00432058
-0.00747805
-0.00327413
-0.00805656
-0.00193131
-0.00844363
-0.000183394
-0.00852346
0.00174606
-0.00829568
0.00330621
-0.00814502
0.00454564
-0.00783842
0.00549886
-0.00739394
0.00618844
-0.0068863
0.00661284
-0.00633603
0.00672376
-0.00572568
0.00640996
-0.00505764
0.00545763
-0.00433572
0.0034804
-0.00355974
-0.00288587
0.00264209
-0.00316337
0.00581612
0.00430731
-0.00228906
0.00562659
0.00491439
-0.00121416
0.00491439
0.00430501
0.000141719
0.00398927
0.00230158
0.00180967
0.00299267
-0.000752235
0.00303186
0.00203621
-0.00190589
0.00124566
0.000544909
-0.0014863
-0.000437931
4.58686e-05
-0.00105724
-0.000499139
-1.50519e-05
-0.000823767
-0.000374229
7.15321e-05
-0.0005969
-0.000417722
0.000180525
-0.000422908
-0.000426894
0.000407579
-0.000787384
-6.51228e-05
0.000882242
-0.00239689
0.00123044
0.00184964
-0.0046583
0.00177302
0.00227638
-0.00627582
0.000931208
0.00262753
-0.00684366
-0.000318269
0.00313275
-0.00622453
-0.00167188
0.0037109
-0.0041558
-0.00323348
0.00425476
-0.00525031
0.00447041
0.00155552
-0.0049149
0.00277656
0.0026327
-0.00374292
0.00324416
0.00307904
-0.00210684
0.00307904
0.00270309
0.000179774
0.0024747
0.00184978
0.00238482
0.0019772
0.000863189
0.00380226
0.00169374
-0.00010964
0.00197735
0.000976107
-0.00060517
1.09731e-05
0.000111569
-0.000771799
-0.000408999
-0.000323381
-0.000907499
-0.000389209
-0.000381605
-0.00108952
-0.000462209
-0.000211075
-0.00135417
-0.00048191
0.000254715
-0.00191313
7.10979e-05
0.000894563
-0.00237607
0.00123789
0.00141643
-0.00307299
0.00210622
0.00163245
-0.00394258
0.00142539
0.00158179
-0.00442538
-0.000250686
0.00174783
-0.00396139
-0.00256583
0.00216156
-0.0025373
-0.00507581
0.00240605
-0.00796608
0.00219112
0.0011906
-0.00587479
0.000617218
0.00188957
-0.00448451
0.00172312
0.00213832
-0.00260435
0.00213832
0.00215821
-0.000204136
0.0020578
0.00193587
0.00232915
0.00176454
0.0017506
0.00370008
0.00159652
0.00126016
0.00217864
0.00115511
0.000563025
0.000639173
0.000569083
-4.73687e-05
0.000211469
2.63663e-05
-0.000577063
0.000102681
-0.000462587
-0.00106539
-0.000110871
-0.000469851
-0.00160146
-0.000171953
-3.69673e-06
-0.00204829
0.000257607
0.000590012
-0.00216266
0.0010489
0.00108404
-0.00213971
0.00187741
0.00131437
-0.00237814
0.00156001
0.0012868
-0.00254757
-9.91973e-05
0.00142617
-0.00236393
-0.00280465
0.00174587
-0.00156569
-0.00588708
0.00168308
-0.00919126
0.0010075
0.0011392
-0.00656418
-0.000620906
0.00161874
-0.00472879
0.000829053
0.00167638
-0.00271962
0.00167638
0.00162519
-0.000312462
0.00194225
0.00174547
0.00208856
0.00188613
0.00196841
0.00333603
0.00175428
0.00177914
0.00226487
0.00149806
0.00125095
0.00121641
0.00118412
0.000649222
0.000957384
0.000780325
9.09952e-05
0.000887781
0.00022946
-0.000391286
0.000662535
-0.00018502
-0.000924627
0.000565198
9.79111e-05
-0.00139144
0.000808801
0.000673847
-0.00147723
0.00112867
0.00109252
-0.00118123
0.00159381
0.00136691
-0.000987251
0.00150386
0.00155801
-0.00111035
0.000178308
0.00184855
-0.00126658
-0.00261841
0.00190816
-0.000982761
-0.00602905
0.00151629
-0.00957048
0.000424991
0.00106966
-0.00712891
-0.00124604
0.00142406
-0.00470073
0.00033633
0.00134469
-0.00256089
0.00134469
0.00118574
-0.000252572
0.00182604
0.00134161
0.0018616
0.00199647
0.00168363
0.00292076
0.00194876
0.001596
0.00226968
0.00178061
0.00117703
0.00163055
0.00158088
0.000726672
0.00150739
0.00128586
0.0004045
0.00145648
0.000885064
0.000178863
0.00128825
0.00057719
-6.80432e-05
0.00120606
0.000653209
-0.000316642
0.00128437
0.00100774
-0.000420795
0.00135716
0.00130753
-0.000241257
0.00148704
0.00157337
-6.91737e-05
0.00137643
0.00189427
-0.00017658
0.000229881
0.00220095
-0.000543816
-0.00230924
0.00207507
-0.000598397
-0.00578965
0.00144755
-0.00942736
6.30277e-05
0.000889011
-0.00744184
-0.00168823
0.00116631
-0.00451779
-3.46747e-05
0.00101545
-0.00225918
0.00101545
0.000834796
-0.000155948
0.0015341
0.000927062
0.00161042
0.0017902
0.00122041
0.00247659
0.00184478
0.00118482
0.00212883
0.00172015
0.000916139
0.00176569
0.00155953
0.000665555
0.0017186
0.00135805
0.000530082
0.00168394
0.00110832
0.000490688
0.00153502
0.000913158
0.000475937
0.00142959
0.000916859
0.000464407
0.00141736
0.00107961
0.000461067
0.00139698
0.00128872
0.000535926
0.00136092
0.00152994
0.000576819
0.00115649
0.00186165
0.00038756
0.000126123
0.00215692
-7.4725e-05
-0.00202783
0.00199258
-0.000286738
-0.00533602
0.0012235
-0.00893398
-0.000251867
0.000533236
-0.00731137
-0.00216382
0.000733217
-0.00419993
-0.000482088
0.000563656
-0.00192007
0.000563656
0.000377895
1.30406e-05
0.000984251
0.000482023
0.00129917
0.00121414
0.000761101
0.00193941
0.00129873
0.000838148
0.00179031
0.00121815
0.000758276
0.00164515
0.00113162
0.000680781
0.00169064
0.00106105
0.000655339
0.00169194
0.000951871
0.000713329
0.00153205
0.000819802
0.000803306
0.00137243
0.000768219
0.000909258
0.00127234
0.00080665
0.000999531
0.001189
0.000905211
0.00107154
0.0010956
0.0010797
0.0010681
0.000870224
0.00136405
0.000819013
4.17728e-05
0.00162584
0.000412591
-0.00184139
0.0015173
0.000108305
-0.00474234
0.000746014
-0.00804003
-0.000632831
-0.000164367
-0.00640207
-0.00278512
-0.000154132
-0.00368302
-0.00126496
-0.000353553
-0.00152123
-0.000353553
-0.000244811
-0.000179708
3.84618e-05
7.22884e-06
0.000752084
0.000175412
0.000357931
0.00113624
0.000219112
0.000607053
0.00103601
0.000129194
0.00072802
0.00104504
9.18368e-05
0.000776114
0.00132777
0.000163302
0.000809573
0.00145637
0.000216601
0.000910132
0.00120571
0.000118966
0.00105828
0.000934405
3.14202e-05
0.00123659
0.000751682
8.16475e-06
0.00140259
0.000631749
6.30768e-05
0.00153155
0.000543176
0.000205669
0.00162589
0.00035431
0.000454514
0.00154841
-0.000284507
0.00062511
0.00117452
-0.00159627
0.000491448
0.000630234
-0.00383055
-0.000135342
-0.00667824
-0.00117705
-0.00124291
-0.00436641
-0.00372264
-0.00189608
-0.00249441
-0.00264032
-0.00202586
-0.00126168
-0.00202586
-0.00177198
-0.000508588
-0.00191781
-0.0012327
1.87638e-06
-0.00192302
-0.000602441
0.000166721
-0.00203497
-7.61045e-05
0.000200129
-0.00229147
0.000381562
0.000341191
-0.0024578
0.000814606
0.000714173
-0.00233811
0.00114199
0.000987979
-0.0021096
0.00152138
0.000652912
-0.00213836
0.00186692
0.000371165
-0.00211768
0.00217896
0.000190713
-0.00204024
0.00247093
7.53551e-05
-0.00192262
0.00277066
-3.74056e-05
-0.00175716
0.00303837
-0.00021883
-0.00152358
0.00305054
-0.000583899
-0.0012664
0.00266046
-0.00125482
-0.00124284
0.00164094
-0.00246349
-0.00152856
-0.00438095
-0.00206873
-0.00359917
-0.00522078
-0.00537822
-0.00543444
-0.00600906
-0.00600906
-0.00597244
-0.00663683
-0.00544799
-0.00734867
-0.00463948
-0.00811985
-0.00360651
-0.00888942
-0.00223768
-0.00947127
-0.000372348
-0.00967462
0.00180047
-0.00948053
0.00353154
-0.00922317
0.00482738
-0.00876309
0.00576181
-0.00813767
0.00640709
-0.00745623
0.0068048
-0.00677116
0.00694034
-0.00608005
0.00670106
-0.00540226
0.00582363
-0.00471311
0.00381729
-0.0040169
-0.00344954
0.00216653
-0.0011505
0.00480007
0.00352162
-0.000571538
0.00484302
0.00398927
0.000141719
0.00430501
0.00336105
0.00125644
0.00336105
0.00164825
0.00236923
0.00233622
-0.000838509
0.00320554
0.00131736
-0.00168876
0.00122922
0.000165905
-0.00125552
-0.000392846
5.49672e-06
-0.000873337
-0.00051425
0.000117023
-0.000744508
-0.00038683
0.000329543
-0.000606403
-0.000436482
0.00047891
-0.000451895
-0.000457993
0.000711067
-0.000731437
-6.81191e-05
0.0012299
-0.00219099
0.0012793
0.00202993
-0.00423806
0.00180626
0.0025172
-0.00568434
0.00106669
0.00300712
-0.00613819
-7.99178e-05
0.00366651
-0.00553011
-0.00119727
0.00430009
-0.0036403
-0.0024368
0.00480174
-0.00399022
0.00482033
0.00125715
-0.00197196
0.00234087
0.00213682
-0.00102552
0.00281846
0.0024747
0.000179774
0.00270309
0.00227707
0.00165169
0.00227707
0.00162122
0.00320451
0.00179775
0.000921097
0.00405012
0.00154925
0.00012645
0.00203523
0.000964725
-0.000358941
8.87628e-05
0.000115356
-0.000603284
-0.000466968
-0.00012631
-0.00085094
-0.000456993
-6.37811e-05
-0.00112903
-0.000540993
0.000171531
-0.00142938
-0.00055615
0.00065322
-0.0019835
7.43404e-05
0.00130623
-0.00242064
0.00134188
0.00179101
-0.00308843
0.00221692
0.0018896
-0.0038395
0.00157871
0.00182083
-0.00423345
0.000125736
0.00193612
-0.00373037
-0.00180957
0.00227076
-0.00234139
-0.00377029
0.00235057
-0.00599621
0.00185571
0.0011095
-0.00306738
0.000603131
0.00169379
-0.00150726
0.00162057
0.0020578
-0.000204136
0.00215821
0.00212049
0.0015263
0.00212049
0.00196136
0.00326585
0.00186231
0.00181037
0.00407592
0.00172168
0.00128766
0.00243332
0.00127972
0.000609714
0.000705048
0.000630742
2.31188e-05
4.02537e-05
0.000105739
-0.000564732
-0.000156377
-0.000175349
-0.00114124
-0.000378287
-5.6047e-05
-0.0017075
-0.00042291
0.000429325
-0.00218936
0.000140835
0.00100538
-0.00239518
0.00119583
0.00143591
-0.00251584
0.00213645
0.0015155
-0.0028239
0.00181058
0.00136299
-0.00292285
0.000277958
0.0013729
-0.00255385
-0.00193234
0.00149964
-0.00159633
-0.00433006
0.00128532
-0.00697104
0.000385992
0.00133285
-0.00419261
-0.000828523
0.00178275
-0.00176657
0.000638454
0.00194225
-0.000312462
0.00162519
0.00202184
0.00136711
0.00202184
0.0020931
0.0030706
0.00201011
0.00217111
0.00384088
0.00191127
0.00187189
0.00261746
0.00161313
0.001316
0.00125557
0.00118949
0.000730243
0.000676008
0.000730321
0.000101416
0.000484632
0.000217275
-0.000628493
0.000197051
-3.04492e-05
-0.00133469
6.77968e-05
0.000313406
-0.00184278
0.000460124
0.00086264
-0.00196882
0.00115077
0.00126361
-0.00182802
0.00194834
0.00141423
-0.00180913
0.00194546
0.00140424
-0.00187041
0.000677811
0.00150997
-0.00170954
-0.00170209
0.00151703
-0.00113831
-0.00440973
0.00102473
-0.00749093
-0.000193443
0.00127983
-0.00531409
-0.0014044
0.00172699
-0.00195169
7.42888e-05
0.00182604
-0.000252572
0.00118574
0.00182033
0.00137853
0.00182033
0.00194195
0.00289686
0.00204858
0.00212254
0.0035611
0.00204793
0.00194717
0.00270731
0.00186612
0.00148087
0.00172397
0.00157877
0.000966732
0.00127077
0.00120523
0.000513307
0.00107801
0.000745103
2.32017e-05
0.00085734
0.000407004
-0.00053437
0.000734251
0.000544326
-0.0010061
0.000948528
0.00099106
-0.00119369
0.00132688
0.001319
-0.00105781
0.00186696
0.00151886
-0.000932438
0.00203886
0.00167551
-0.000965899
0.00104493
0.00186729
-0.00102283
-0.00129237
0.00172228
-0.000772056
-0.00419536
0.000982399
-0.00774039
-0.000459574
0.00099909
-0.00614656
-0.00185485
0.00145008
-0.00221293
-0.000224425
0.0015341
-0.000155948
0.000834796
0.00148332
0.00148008
0.00148332
0.00160448
0.00272673
0.00183916
0.00182271
0.00323788
0.00194977
0.00174439
0.00265406
0.0018517
0.0014028
0.00197754
0.00164754
0.00100529
0.00165682
0.0013695
0.000655734
0.00150385
0.00103204
0.000352527
0.00130272
0.000770977
2.99247e-05
0.00116589
0.000807822
-0.000255107
0.00124632
0.00106685
-0.000406098
0.00144951
0.00131708
-0.000335279
0.00179341
0.00153267
-0.000216186
0.00199958
0.00178182
-0.000239525
0.00122871
0.00199647
-0.000455352
-0.000838497
0.00175453
-0.000407419
-0.00381715
0.000797355
-0.0076945
-0.000705186
0.000499271
-0.00644681
-0.00236285
0.000967486
-0.00251342
-0.000649821
0.000984251
1.30406e-05
0.000377895
0.000963442
0.00152169
0.000963442
0.00114999
0.00241424
0.00134007
0.00144709
0.00272606
0.00151344
0.00151623
0.00231904
0.00148401
0.00134725
0.00190761
0.00137053
0.00108139
0.00176407
0.00121965
0.000804308
0.00170677
0.00102603
0.000584612
0.00150414
0.000838079
0.000382786
0.00131301
0.000822921
0.000226648
0.0012623
0.000946798
0.000157098
0.00132768
0.00109658
0.000231074
0.00152766
0.00127146
0.000363423
0.00170616
0.00152512
0.000350136
0.00115393
0.0017139
8.46253e-05
-0.000493265
0.00143757
8.56598e-05
-0.00342226
0.000350082
-0.00720602
-0.00103566
-0.000308537
-0.00592488
-0.00299852
-4.55362e-05
-0.00257351
-0.00146788
3.84618e-05
-0.000179708
-0.000244811
0.000210057
0.00117849
0.000210057
0.000546677
0.00176948
0.00048355
0.00101098
0.00186656
0.0006143
0.00130106
0.00158463
0.000573521
0.00136727
0.00144091
0.000492315
0.00123615
0.00161158
0.000446902
0.00098989
0.00175789
0.000411737
0.000828787
0.00149979
0.000284409
0.000715712
0.00119465
0.000262849
0.000663999
0.00101827
0.000303907
0.000688833
0.000963996
0.000401927
0.000817373
0.00103754
0.000567243
0.00101892
0.00115586
0.000803261
0.00110053
0.000783402
0.00091402
0.000997199
-0.000501123
0.000602633
0.000675167
-0.00288668
-0.000348891
-0.00619302
-0.0015149
-0.00147694
-0.00426015
-0.00391045
-0.0019928
-0.00201015
-0.00268782
-0.00191781
-0.000508588
-0.00177198
-0.00149774
0.000338351
-0.00149774
-0.000897764
0.000671698
-0.00142522
-0.000260703
0.000748121
-0.0015536
0.000217345
0.000735573
-0.00192046
0.000603186
0.000883698
-0.00228643
0.000983189
0.00129844
-0.00240499
0.00121559
0.00166808
-0.00225221
0.00152967
0.00126114
-0.00221379
0.00175107
0.000882993
-0.00202743
0.00189987
0.000641402
-0.00181218
0.00203204
0.000494583
-0.00158538
0.00221492
0.0004193
-0.0013218
0.00248061
0.000377231
-0.00101064
0.00266245
0.000144462
-0.000809303
0.00254523
-0.000640975
-0.000985772
0.0017419
-0.00203551
-0.00157642
-0.00423694
-0.00228292
-0.00414839
-0.00533255
-0.00609161
-0.00550138
-0.00663683
-0.00597244
-0.00646766
-0.00646766
-0.00593393
-0.0072107
-0.00517276
-0.0081329
-0.00418677
-0.00913984
-0.00276863
-0.0100057
-0.000664617
-0.0104802
0.0019501
-0.0104272
0.00395319
-0.00996513
0.00532868
-0.0092556
0.00621605
-0.00838364
0.00674906
-0.00749466
0.00704331
-0.00664611
0.00717922
-0.00583873
0.00704625
-0.00512483
0.0062445
-0.00455234
0.00417251
-0.00398042
-0.00351398
0.00183678
0.00121498
0.0017483
0.00279893
0.00144361
0.00243725
0.00299267
0.00180967
0.00230158
0.00233622
0.00236923
0.00164825
0.000808432
0.00305557
0.000808432
-0.000985634
0.00310721
4.15055e-06
-0.00129788
0.000695918
-0.00021778
-0.000875881
-0.000473138
5.66492e-05
-0.000642161
-0.000464281
0.000347593
-0.000663268
-0.000384244
0.000734903
-0.000616813
-0.000454621
0.000887085
-0.000440607
-0.000493047
0.00102791
-0.000492807
-0.000179693
0.0014618
-0.00162056
0.00115328
0.00200443
-0.00347566
0.00190635
0.00246597
-0.00477322
0.00132936
0.00297532
-0.00521119
0.000441132
0.00366335
-0.0046879
-0.000525381
0.00430217
-0.0030742
-0.00147915
0.00466719
-0.00271002
0.00445614
0.00101372
0.00157984
0.000962262
0.00169906
0.00186038
0.00171634
0.0019772
0.00238482
0.00184978
0.00179775
0.00320451
0.00162122
0.00132557
0.00399989
0.00132557
0.000870317
0.00388917
0.00122251
0.000223202
0.00154512
0.000762629
-0.000195498
-6.8901e-05
0.000129821
-0.00045738
-0.000483823
0.000155121
-0.000817163
-0.000470376
0.000382139
-0.00114541
-0.000589389
0.000634546
-0.00141249
-0.000602423
0.00102968
-0.00189659
1.048e-05
0.00160015
-0.00230756
0.00128836
0.00206691
-0.00285315
0.00231352
0.00202801
-0.00348786
0.00189744
0.00188747
-0.00377508
0.000750352
0.00191412
-0.00334249
-0.000695048
0.00200784
-0.00211166
-0.00220293
0.00184351
-0.00406773
0.00110175
0.00110087
0.000186336
0.000895746
0.00148654
0.00155236
0.00154288
0.00176454
0.00232915
0.00193587
0.00186231
0.00326585
0.00196136
0.00180396
0.00411657
0.00180396
0.00169597
0.00402906
0.00168975
0.00118042
0.00212746
0.00121292
0.00056723
0.00052602
0.000649003
4.53678e-06
-9.37942e-05
0.000278403
-0.000621048
-0.000274064
0.000253927
-0.0012375
-0.00048637
0.000457391
-0.00179137
-0.000496934
0.000877708
-0.00225096
8.60451e-05
0.00138939
-0.00251176
0.00124891
0.00173617
-0.00267114
0.00229296
0.00169545
-0.00294526
0.00212537
0.00140917
-0.00298836
0.000948588
0.00121776
-0.00252613
-0.000704341
0.0010467
-0.00156181
-0.0024893
0.000607379
-0.0049976
-0.000245952
0.001498
-0.00220058
6.03827e-05
0.00176584
0.000926036
0.000996934
0.00188613
0.00208856
0.00174547
0.00201011
0.0030706
0.0020931
0.00210524
0.00392631
0.00210524
0.00213238
0.00391414
0.00199902
0.00178511
0.0024522
0.00163564
0.00123784
0.00108484
0.00117793
0.000670015
0.000461455
0.000742896
-4.53805e-05
0.000243956
0.000414648
-0.00087345
-6.40558e-05
0.000375306
-0.00159469
-0.000199908
0.000737625
-0.00212588
0.000286534
0.00119334
-0.00230935
0.00119034
0.00150565
-0.00227933
0.00216072
0.00151646
-0.00231491
0.00226759
0.00129761
-0.00226363
0.00126792
0.00113936
-0.00189195
-0.000501607
0.000942608