/*--------------------------------*- C++ -*----------------------------------*\
  =========                 |
  \\      /  F ield         | OpenFOAM: The Open Source CFD Toolbox
   \\    /   O peration     | Website:  https://openfoam.org
    \\  /    A nd           | Version:  8
     \\/     M anipulation  |
\*---------------------------------------------------------------------------*/
FoamFile
{
    version     2.0;
    format      ascii;
    class       volVectorField;
    location    "1200";
    object      U;
}
// * * * * * * * * * * * * * * * * * * * * * * * * * * * * * * * * * * * * * //

dimensions      [0 1 -1 0 0 0 0];

internalField   nonuniform List<vector> 
4000
(
(0.00838572 -0.0257542 0.00838572)
(0.0174126 -0.0191026 0.00812887)
(0.0225701 -0.013077 0.00721359)
(0.0227736 -0.00701079 0.00630115)
(0.0173133 -0.000617517 0.00569593)
(-0.00149453 0.00444828 0.00386429)
(-0.0127313 -0.000330191 0.00089716)
(-0.00736098 -0.00126899 -0.000235997)
(-0.00670482 -0.00135534 -0.000355179)
(-0.00482799 -0.00154408 -0.000393435)
(-0.00295091 -0.00173548 -0.000393458)
(-0.0002604 -0.00161934 -0.000192842)
(-0.000473671 -0.00186333 -0.000299629)
(0.0019728 0.000340313 0.00210579)
(-0.0123017 0.0038461 0.00302044)
(-0.0227478 -0.000258825 0.00293571)
(-0.0284553 -0.0043194 0.00321447)
(-0.0277839 -0.00889826 0.00369463)
(-0.0217906 -0.0146915 0.00416289)
(-0.010559 -0.0228133 0.00462659)
(0.00367424 -0.035515 0.00367424)
(0.0087568 -0.025819 0.00411848)
(0.0107118 -0.015867 0.00386691)
(0.0105487 -0.00457302 0.00342694)
(0.00873129 0.00773348 0.00306165)
(0.000507077 0.0117314 0.00279136)
(-0.00505306 -0.000133628 0.000508623)
(-0.00400561 -0.00187428 -0.000177215)
(-0.00573513 -0.0015402 -0.0010693)
(-0.00461447 -0.00167906 -0.00144006)
(-0.0034754 -0.00199096 -0.00140833)
(-0.00244016 -0.00172623 -0.000812743)
(-0.00328619 -0.000553581 0.000221851)
(-0.00450606 0.00297611 0.00111392)
(-0.00668399 0.00818136 0.00234967)
(-0.0109359 0.00643949 0.00221628)
(-0.0139147 0.000453513 0.00251079)
(-0.0132761 -0.0095979 0.00308763)
(-0.0107629 -0.0195649 0.0032027)
(-0.00345708 -0.0329477 0.00347264)
(0.00158181 -0.0447473 0.00158181)
(0.00368456 -0.0339463 0.00256084)
(0.00265212 -0.0220277 0.00277709)
(0.00169027 -0.00991248 0.00299947)
(0.00393004 0.00659001 0.00334892)
(0.00380384 0.0117282 0.00277507)
(0.00362825 0.00259425 0.0015958)
(0.00291647 0.000927207 0.00160171)
(-0.000486812 0.00141494 0.000775934)
(-0.00227764 0.000607344 -0.000388516)
(-0.0024866 9.44821e-05 -0.000891166)
(-0.00292165 0.000218077 3.40777e-05)
(-0.00464838 0.000616673 0.00126904)
(-0.00548395 0.00178045 0.00191472)
(-0.00428603 0.0052468 0.00259269)
(-0.00405763 0.00487474 0.00293002)
(-0.000227112 -0.00388179 0.00376037)
(-0.00114029 -0.0154834 0.00347071)
(-0.00232508 -0.0274085 0.0030051)
(0.000284039 -0.042318 0.00298939)
(0.000545561 -0.0480033 0.000545561)
(0.000814019 -0.0369162 0.00186926)
(-0.00222971 -0.0247484 0.0023094)
(-0.00310967 -0.0141579 0.0030654)
(-0.00293549 -0.00489955 0.0041064)
(0.00351126 0.00454598 0.00448753)
(0.00468508 -0.0020189 0.00418625)
(0.00416357 -0.00124405 0.00403114)
(0.00260842 0.00227596 0.00357033)
(0.000788487 0.00273331 0.00287285)
(0.000734395 0.00162968 0.00268921)
(0.00140268 0.000679025 0.00293615)
(0.00185149 -0.000327396 0.00325574)
(0.00228129 -0.00171086 0.00355066)
(0.00343894 -0.00286907 0.00394532)
(0.00592245 -0.0057515 0.00445584)
(0.00688098 -0.0108208 0.00414402)
(0.0061655 -0.0191529 0.00334716)
(0.00313344 -0.0307485 0.00286955)
(0.00240958 -0.0455014 0.0027523)
(-0.000144231 -0.0483827 -0.000144231)
(-0.000916057 -0.0379825 0.00132817)
(-0.0047566 -0.0276768 0.00154429)
(-0.00557498 -0.0194084 0.00193336)
(-0.00547711 -0.0129993 0.00241939)
(-0.00280688 -0.00957332 0.003079)
(-0.000353527 -0.0088842 0.00257485)
(0.000142486 -0.00693955 0.00267249)
(0.00120921 -0.0038601 0.00323385)
(0.00230227 -0.00359477 0.00343904)
(0.00350781 -0.00497015 0.003149)
(0.00505925 -0.0063184 0.00285837)
(0.00666056 -0.00754741 0.00268922)
(0.00815703 -0.00869637 0.00265717)
(0.00954726 -0.0100943 0.00267785)
(0.0106386 -0.0124687 0.00266341)
(0.010712 -0.0167935 0.00253664)
(0.00974477 -0.0234122 0.00231978)
(0.00603146 -0.0330771 0.00231786)
(0.00373708 -0.0461517 0.00245935)
(-0.000806384 -0.0469686 -0.000806384)
(-0.00207261 -0.0380644 0.000642888)
(-0.0064561 -0.0297447 0.000380791)
(-0.00739781 -0.0236357 0.00018199)
(-0.00725895 -0.0192968 -4.75426e-05)
(-0.00562616 -0.016512 -0.000248172)
(-0.00363966 -0.0156938 -0.000463177)
(-0.00181644 -0.0142133 -0.000494477)
(0.00049308 -0.0116467 -4.07909e-05)
(0.00294847 -0.0110229 0.000335682)
(0.00503103 -0.0121452 0.000174992)
(0.00725784 -0.013363 -5.86812e-05)
(0.00936345 -0.0144645 -0.000172053)
(0.0112229 -0.0155082 -0.000121235)
(0.0126868 -0.0166902 5.65516e-05)
(0.0135253 -0.0184816 0.000303171)
(0.0132939 -0.0214913 0.000590301)
(0.011989 -0.0263948 0.000911882)
(0.00765475 -0.0341004 0.00140972)
(0.0046367 -0.0451173 0.00196792)
(-0.00166205 -0.0437764 -0.00166205)
(-0.00330239 -0.0365555 -0.000393571)
(-0.00822126 -0.0303485 -0.00115182)
(-0.00943139 -0.0262004 -0.00185595)
(-0.00931569 -0.0234919 -0.00258174)
(-0.00773295 -0.0219218 -0.0032262)
(-0.00538831 -0.0210683 -0.00369354)
(-0.00264457 -0.0199238 -0.00396342)
(0.000383547 -0.0179657 -0.0037629)
(0.00344755 -0.0173314 -0.00333244)
(0.00588356 -0.0181794 -0.00334202)
(0.00857863 -0.0190362 -0.00338129)
(0.0111212 -0.0197357 -0.00328391)
(0.0133529 -0.0203475 -0.00302827)
(0.015063 -0.02104 -0.0026357)
(0.0159634 -0.0221331 -0.00210769)
(0.0156291 -0.0241076 -0.00146012)
(0.0139767 -0.0275567 -0.000707426)
(0.00897857 -0.0333527 0.000229373)
(0.00549652 -0.042165 0.00118481)
(-0.0030629 -0.0376585 -0.0030629)
(-0.00522112 -0.0322455 -0.00217647)
(-0.0105592 -0.0281562 -0.00321467)
(-0.0120104 -0.0256895 -0.00425904)
(-0.0118234 -0.0241712 -0.00524432)
(-0.0100039 -0.0233591 -0.00607845)
(-0.00709783 -0.022872 -0.00670845)
(-0.00349145 -0.0221587 -0.00708635)
(0.000202087 -0.0208565 -0.00701999)
(0.00389548 -0.0203634 -0.00658654)
(0.00663915 -0.0209347 -0.0065293)
(0.00986084 -0.0213525 -0.00642606)
(0.0128901 -0.0215778 -0.00616871)
(0.0155098 -0.0217229 -0.0057695)
(0.0175036 -0.0219482 -0.00523066)
(0.0185637 -0.0224822 -0.00453678)
(0.0182438 -0.023635 -0.00370541)
(0.0163052 -0.0258032 -0.00268747)
(0.0106875 -0.0297146 -0.00141192)
(0.00669879 -0.0362127 -9.13511e-05)
(-0.00547611 -0.0277693 -0.00547611)
(-0.00870711 -0.0239546 -0.00534687)
(-0.0141915 -0.0217436 -0.00665712)
(-0.0157385 -0.0208764 -0.00800959)
(-0.0153618 -0.0206143 -0.00923284)
(-0.013213 -0.0206732 -0.0102671)
(-0.00974204 -0.0207991 -0.0110608)
(-0.00529879 -0.0206342 -0.0115329)
(-0.000818136 -0.0198741 -0.0114584)
(0.00434841 -0.0195465 -0.0108128)
(0.00784736 -0.0199199 -0.0107488)
(0.0118853 -0.0200013 -0.0105265)
(0.0155375 -0.0198153 -0.0101117)
(0.0185685 -0.0194903 -0.0095546)
(0.0208086 -0.0191486 -0.00886391)
(0.0219941 -0.0189374 -0.00800543)
(0.021694 -0.0190701 -0.00694473)
(0.0195083 -0.019858 -0.00564677)
(0.0135567 -0.0220679 -0.00404956)
(0.0087456 -0.026495 -0.00232145)
(-0.00935385 -0.016885 -0.00935385)
(-0.0148129 -0.0132234 -0.0108527)
(-0.0202187 -0.0114249 -0.0131519)
(-0.0215925 -0.0106958 -0.015273)
(-0.0208658 -0.0103045 -0.0172319)
(-0.018319 -0.0099986 -0.0189123)
(-0.0143385 -0.00959141 -0.0203166)
(-0.0091442 -0.00890983 -0.0213191)
(-0.00392658 -0.00782614 -0.0216529)
(0.00454645 -0.00686204 -0.0210001)
(0.00996006 -0.0078008 -0.0205579)
(0.0153194 -0.00848536 -0.0197661)
(0.0198115 -0.00891126 -0.0187143)
(0.0233317 -0.00917356 -0.0175238)
(0.0258373 -0.00935796 -0.0162178)
(0.027163 -0.00954004 -0.0147514)
(0.0269602 -0.00983914 -0.0130712)
(0.0247741 -0.0104795 -0.0111218)
(0.0187472 -0.0121336 -0.00871511)
(0.0121692 -0.0159263 -0.00582304)
(0.00812887 -0.0191026 0.0174126)
(0.0163879 -0.0144359 0.0163879)
(0.0217616 -0.00977297 0.0141483)
(0.0223969 -0.00477479 0.011609)
(0.0174591 0.000639966 0.00945998)
(0.00365894 0.00608704 0.00689978)
(-0.0112274 0.000845022 0.00215129)
(-0.00690886 -0.00189083 -8.14509e-05)
(-0.00567015 -0.00170437 -0.000448985)
(-0.00430382 -0.00151522 -0.000440442)
(-0.00296056 -0.00174433 -0.000319976)
(-0.00144079 -0.0019895 0.000177126)
(-0.00116032 -0.00184591 0.000756121)
(-0.00257621 0.00225634 0.00477715)
(-0.014941 0.00356869 0.00567343)
(-0.0240545 -0.00037615 0.00592513)
(-0.0290342 -0.00423692 0.00679569)
(-0.0282443 -0.0086326 0.00812799)
(-0.0220826 -0.0142585 0.00953062)
(-0.0112644 -0.0219994 0.0105789)
(0.00411848 -0.025819 0.0087568)
(0.00955901 -0.0194106 0.00955901)
(0.0123656 -0.0114738 0.00872246)
(0.01269 -0.00147051 0.00702441)
(0.0104832 0.00853999 0.00555341)
(0.00494868 0.0137726 0.00486839)
(-0.00210772 0.00473016 0.00222067)
(-0.00203932 -0.0024188 4.66231e-05)
(-0.00430446 -0.00194297 -0.00159143)
(-0.00390332 -0.0015285 -0.00217317)
(-0.00382499 -0.00173665 -0.00197874)
(-0.0040816 -0.00164503 -0.000817801)
(-0.00567216 0.000149772 0.00106953)
(-0.00644852 0.0049002 0.00279302)
(-0.00961246 0.00891456 0.00403613)
(-0.0136143 0.0063482 0.00379171)
(-0.0168169 0.000157425 0.00436372)
(-0.0162256 -0.00885581 0.00590931)
(-0.0128885 -0.0188342 0.00687912)
(-0.00516184 -0.0317125 0.00732234)
(0.00256084 -0.0339463 0.00368456)
(0.00622968 -0.0269976 0.00622968)
(0.0067374 -0.0171646 0.00676273)
(0.00652404 -0.00563038 0.00601114)
(0.00692808 0.0075529 0.00524141)
(0.00633965 0.0142594 0.00435287)
(0.00440104 0.0064074 0.00269185)
(0.00381263 0.001139 0.00184212)
(0.000265415 0.000148218 0.000265762)
(-0.00170791 -0.000413139 -0.00178823)
(-0.00299599 -0.00120834 -0.00231752)
(-0.00487269 -0.00139368 -0.000944143)
(-0.00686442 2.59241e-05 0.00106363)
(-0.00718168 0.00346392 0.00258055)
(-0.00663188 0.00743726 0.00384718)
(-0.00688305 0.00585641 0.00423857)
(-0.00616756 -0.00181872 0.00526682)
(-0.00643578 -0.0130008 0.00641538)
(-0.00635704 -0.0257186 0.00650257)
(-0.0020594 -0.0408004 0.00597145)
(0.00186926 -0.0369162 0.000814019)
(0.00481239 -0.0295581 0.00481239)
(0.00358166 -0.0186197 0.00644951)
(0.00266314 -0.00644231 0.00696675)
(0.00277009 0.00524437 0.00696371)
(0.00571136 0.011591 0.00618364)
(0.00637422 0.00554346 0.00544973)
(0.00575821 0.00275773 0.005102)
(0.00328765 0.00365861 0.0040409)
(0.000855307 0.00388723 0.00248376)
(-0.000218792 0.0033022 0.00157171)
(-0.000755486 0.00302974 0.00228119)
(-0.00216509 0.00293802 0.00359922)
(-0.00311841 0.00297585 0.00453899)
(-0.00229417 0.00424132 0.00551054)
(-0.000465771 0.00340805 0.00681043)
(0.00137973 -0.0021013 0.00787657)
(9.42534e-05 -0.0131166 0.00748443)
(-0.00226692 -0.0276081 0.00689342)
(-0.000377437 -0.0439042 0.00548636)
(0.00132817 -0.0379825 -0.000916057)
(0.0041558 -0.0302021 0.0041558)
(0.00172961 -0.0191125 0.00629966)
(0.000662217 -0.00759147 0.00724195)
(8.10007e-05 0.00232837 0.00807626)
(0.00304418 0.00690992 0.00805538)
(0.00427871 0.00435454 0.00737373)
(0.00354678 0.00370493 0.00708915)
(0.0024108 0.00491042 0.00646806)
(0.00170619 0.00497646 0.00577038)
(0.00172951 0.00420953 0.00552096)
(0.00213258 0.0037014 0.00579648)
(0.00231516 0.00342315 0.00625056)
(0.00246599 0.00283235 0.00676869)
(0.00300085 0.00211649 0.00732026)
(0.0042179 0.000256188 0.00804378)
(0.00452329 -0.0047884 0.00825876)
(0.00353242 -0.0139364 0.00782578)
(0.000112274 -0.0277578 0.00708704)
(0.000671392 -0.0440497 0.00515441)
(0.000642888 -0.0380644 -0.00207261)
(0.00356564 -0.0295708 0.00356564)
(0.000164162 -0.0188006 0.00576333)
(-0.000567831 -0.00846367 0.00654732)
(-0.00101663 -0.00110478 0.0072286)
(0.000876345 0.00337658 0.00776699)
(0.00189019 0.00277205 0.00740013)
(0.00159682 0.00305771 0.00717832)
(0.00146933 0.00439633 0.00694648)
(0.0019961 0.00456562 0.00671274)
(0.00287614 0.0038308 0.00661759)
(0.00389897 0.00312936 0.00661624)
(0.00482765 0.00249295 0.00670382)
(0.00566213 0.00158455 0.00690113)
(0.00643073 0.000153868 0.00707121)
(0.00689808 -0.0022445 0.00721736)
(0.00637954 -0.00682042 0.00732143)
(0.00529588 -0.0149648 0.00716905)
(0.00152848 -0.0274285 0.00664338)
(0.00153258 -0.0422508 0.00453465)
(-0.000393571 -0.0365555 -0.00330239)
(0.00240549 -0.0277161 0.00240549)
(-0.00191046 -0.0177522 0.00438391)
(-0.00237826 -0.00971886 0.00473101)
(-0.00255386 -0.00377665 0.00478176)
(-0.00123238 -0.000260526 0.00507368)
(0.00011235 0.00068771 0.00510526)
(0.000853084 0.0016314 0.00541724)
(0.00146156 0.00277491 0.00586984)
(0.00236242 0.00277917 0.00597339)
(0.00342794 0.00201397 0.0058298)
(0.00471591 0.0011896 0.00534013)
(0.00607106 0.000341951 0.00488236)
(0.00736532 -0.000725717 0.00458236)
(0.00835569 -0.00213724 0.00454848)
(0.0088245 -0.0044042 0.00476651)
(0.0083067 -0.00851545 0.00522168)
(0.00704978 -0.0153899 0.00553467)
(0.00287215 -0.0260073 0.00533628)
(0.00252183 -0.038858 0.00331714)
(-0.00217647 -0.0322455 -0.00522112)
(-0.000218165 -0.0237317 -0.000218165)
(-0.00489858 -0.0162369 0.00106443)
(-0.00568746 -0.0107632 0.000617364)
(-0.00573015 -0.00687016 -0.00011301)
(-0.00444251 -0.00465102 -0.000772256)
(-0.00253563 -0.00365115 -0.00119917)
(-0.000441603 -0.00250062 -0.0011165)
(0.00157546 -0.000581039 6.77019e-05)
(0.00306265 7.79502e-05 0.000821048)
(0.00459469 -0.000952266 0.000306127)
(0.00641985 -0.00207046 -0.000332747)
(0.00826927 -0.00303622 -0.000707447)
(0.00996955 -0.00397179 -0.000781426)
(0.0113277 -0.00512264 -0.000530619)
(0.0119974 -0.00691468 0.000115072)
(0.0114217 -0.00972156 0.00121756)
(0.00980862 -0.014622 0.00233983)
(0.00509313 -0.0227639 0.00262842)
(0.00408644 -0.0330346 0.00106203)
(-0.00534687 -0.0239546 -0.00870711)
(-0.00571257 -0.0177495 -0.00571257)
(-0.010296 -0.0132409 -0.00550418)
(-0.0109771 -0.0106586 -0.00634067)
(-0.0103134 -0.00923104 -0.00737231)
(-0.00836868 -0.00865329 -0.00835004)
(-0.00562663 -0.00863434 -0.00902752)
(-0.00242725 -0.00833079 -0.0091497)
(0.000940045 -0.00716996 -0.0080844)
(0.00380564 -0.00695499 -0.0068265)
(0.00618436 -0.00759082 -0.00736916)
(0.00896468 -0.00803739 -0.00775115)
(0.0115359 -0.00823183 -0.00778367)
(0.0137291 -0.00831184 -0.00754634)
(0.0154354 -0.00841729 -0.00706156)
(0.0164404 -0.0087966 -0.00625036)
(0.0163389 -0.00989128 -0.00505727)
(0.0147945 -0.0122874 -0.00372629)
(0.00954988 -0.0168449 -0.00269056)
(0.00696918 -0.0240212 -0.00293285)
(-0.0108527 -0.0132234 -0.0148129)
(-0.0158629 -0.00770791 -0.0158629)
(-0.0212362 -0.00473666 -0.0184782)
(-0.0223413 -0.00322157 -0.0212118)
(-0.021512 -0.00229 -0.0238844)
(-0.0190262 -0.00154588 -0.0261935)
(-0.0153849 -0.000729229 -0.0281466)
(-0.010578 0.000379688 -0.0294551)
(-0.00533445 0.00192279 -0.0297514)
(0.00391072 0.0034001 -0.0289558)
(0.010377 0.00196886 -0.028413)
(0.0159641 0.000799352 -0.0273491)
(0.0203554 -0.000115406 -0.0258392)
(0.0236223 -0.000873944 -0.0241157)
(0.0258497 -0.00155933 -0.0222331)
(0.0269674 -0.00224507 -0.0201176)
(0.0266984 -0.00311127 -0.0177115)
(0.0245872 -0.00453982 -0.0149947)
(0.0184509 -0.00740019 -0.0119256)
(0.0121112 -0.0130847 -0.00902515)
(0.00721359 -0.013077 0.0225701)
(0.0141483 -0.00977297 0.0217616)
(0.0190032 -0.00625986 0.0190032)
(0.0198037 -0.0024087 0.0157109)
(0.0152884 0.00217334 0.012267)
(0.0044527 0.00736447 0.00878302)
(-0.00992781 0.0019658 0.00271567)
(-0.00677703 -0.00209637 0.000248056)
(-0.00490983 -0.00202202 -0.000255721)
(-0.00377887 -0.00154498 -0.000100715)
(-0.00284202 -0.00176327 0.000242714)
(-0.00188643 -0.00209023 0.00108588)
(-0.00123602 -0.00140883 0.00281697)
(-0.00442657 0.00313881 0.00683437)
(-0.0153616 0.00346385 0.00832662)
(-0.0234461 -0.00023252 0.00934345)
(-0.0277706 -0.00382506 0.0109603)
(-0.026851 -0.00781291 0.0129326)
(-0.020867 -0.0127525 0.0148206)
(-0.0110332 -0.0192996 0.0156613)
(0.00386691 -0.015867 0.0107118)
(0.00872246 -0.0114738 0.0123656)
(0.0116694 -0.00551866 0.0116694)
(0.0121864 0.00279908 0.0095012)
(0.0101477 0.0101874 0.00774972)
(0.00608986 0.0146818 0.0067866)
(-0.000287155 0.00732483 0.00378996)
(-0.000717291 -0.00165093 0.000402703)
(-0.00339797 -0.0023239 -0.0015291)
(-0.00327359 -0.00171771 -0.00196857)
(-0.00385588 -0.00186602 -0.00144914)
(-0.00477554 -0.00168653 0.00029659)
(-0.00669392 0.000694039 0.00278502)
(-0.00758991 0.00587123 0.00489634)
(-0.011076 0.00905968 0.00593361)
(-0.0148943 0.00621082 0.0057099)
(-0.0177622 0.000209322 0.00634075)
(-0.0171393 -0.00787569 0.00800255)
(-0.0133499 -0.0166279 0.0089727)
(-0.00581065 -0.0272953 0.00846031)
(0.00277709 -0.0220277 0.00265212)
(0.00676273 -0.0171646 0.0067374)
(0.00811632 -0.0101848 0.00811632)
(0.0086956 -0.000897661 0.00759469)
(0.00865097 0.00966923 0.00671067)
(0.00768455 0.0157452 0.00604545)
(0.00533266 0.00902984 0.00423209)
(0.00433647 0.00182816 0.00221115)
(0.000937446 -0.000679007 5.32845e-05)
(-0.00142015 -0.00129632 -0.00212999)
(-0.00322064 -0.0018414 -0.00237253)
(-0.00538858 -0.0018849 -0.000744383)
(-0.0077491 7.69174e-05 0.00171883)
(-0.00826252 0.00468895 0.00376471)
(-0.00853885 0.00848034 0.00495183)
(-0.00952334 0.00597606 0.00508703)
(-0.0101821 -0.00166943 0.00586787)
(-0.00984566 -0.0115589 0.00720503)
(-0.00846589 -0.0227831 0.00695602)
(-0.00319632 -0.0352795 0.00472914)
(0.0023094 -0.0247484 -0.00222971)
(0.00644951 -0.0186197 0.00358166)
(0.00662415 -0.0108515 0.00662415)
(0.00648543 -0.00102445 0.00761045)
(0.00667993 0.00899384 0.00746089)
(0.00769705 0.0144943 0.00685685)
(0.00747494 0.00913406 0.00583503)
(0.00655725 0.00386732 0.00485673)
(0.00397978 0.00258461 0.00343435)
(0.00136228 0.00226315 0.0012975)
(-0.000620685 0.00112325 -0.000586383)
(-0.00265942 0.00069512 0.000344938)
(-0.00490635 0.0020202 0.00271728)
(-0.00602879 0.0040977 0.00435675)
(-0.00544423 0.00704393 0.00562123)
(-0.00457736 0.00657097 0.00675094)
(-0.00378136 0.000725443 0.00812732)
(-0.00464788 -0.0108538 0.00810819)
(-0.00543684 -0.0241516 0.00659699)
(-0.00167517 -0.0380175 0.00278486)
(0.00154429 -0.0276768 -0.0047566)
(0.00629966 -0.0191125 0.00172961)
(0.00551306 -0.0107655 0.00551306)
(0.00497424 -0.00128697 0.00731371)
(0.00466551 0.00790119 0.00808215)
(0.00628561 0.0125088 0.00781734)
(0.00684097 0.00903652 0.0070627)
(0.0058552 0.00579161 0.00640292)
(0.00385467 0.00515334 0.00541047)
(0.00208814 0.00495965 0.00402173)
(0.00106618 0.00426545 0.00303341)
(0.000322655 0.00388065 0.00337034)
(-0.000844559 0.00431471 0.00449396)
(-0.00171447 0.00484628 0.00557359)
(-0.00154321 0.00600054 0.00666258)
(-0.000574833 0.00586388 0.0080848)
(-0.000111858 0.000893131 0.00930797)
(-0.00108748 -0.00992272 0.00861147)
(-0.00352738 -0.0238703 0.00633562)
(-0.000542593 -0.0384117 0.001404)
(0.000380791 -0.0297447 -0.0064561)
(0.00576333 -0.0188006 0.000164162)
(0.00418848 -0.00990953 0.00418848)
(0.00367615 -0.000777289 0.00609301)
(0.00315856 0.00682818 0.00704805)
(0.0044321 0.0106922 0.00716859)
(0.00510592 0.00876245 0.00646619)
(0.0043723 0.00688536 0.00578627)
(0.00312582 0.00664141 0.00510234)
(0.00225477 0.00651603 0.00431574)
(0.00196193 0.0059205 0.00373996)
(0.00197061 0.00556404 0.00377906)
(0.0018838 0.00566494 0.00429021)
(0.00176811 0.0056722 0.00506204)
(0.00189997 0.00567751 0.00604937)
(0.00230688 0.00503422 0.00738717)
(0.00207639 0.000902828 0.00849224)
(0.00129853 -0.00867025 0.00791095)
(-0.00213873 -0.022633 0.00542261)
(0.000539127 -0.0371976 -6.62794e-05)
(-0.00115182 -0.0303485 -0.00822126)
(0.00438391 -0.0177522 -0.00191046)
(0.00217774 -0.00867422 0.00217774)
(0.00194736 -0.000829675 0.00395404)
(0.00142036 0.0055577 0.00448039)
(0.00254651 0.00864695 0.0045988)
(0.00340117 0.00776601 0.00399149)
(0.00330763 0.00677854 0.00352952)
(0.00285377 0.00669338 0.00331809)
(0.00258702 0.00651116 0.0030363)
(0.00267567 0.00586134 0.00265198)
(0.0030339 0.00534018 0.00245613)
(0.00343285 0.00512726 0.00255877)
(0.00380595 0.00492258 0.0029506)
(0.00413647 0.0045977 0.00371909)
(0.00438461 0.0036378 0.00492698)
(0.00378151 -0.000138694 0.00605714)
(0.00318643 -0.00792904 0.00559023)
(-0.000484096 -0.0204386 0.00338836)
(0.00191221 -0.0345402 -0.0018216)
(-0.00321467 -0.0281562 -0.0105592)
(0.00106443 -0.0162369 -0.00489858)
(-0.00182329 -0.00629722 -0.00182329)
(-0.00111736 0.00109129 -0.000620363)
(-0.000651804 0.00568748 -0.000259599)
(0.00073728 0.00773629 -0.000275071)
(0.00204278 0.0074279 -0.000788394)
(0.00276574 0.00729488 -0.000945844)
(0.00306776 0.00777354 -0.000598456)
(0.0031446 0.00802865 -0.000315719)
(0.00337803 0.00738915 -0.000583431)
(0.00392153 0.00663103 -0.000893889)
(0.0045952 0.00602713 -0.00103488)
(0.00529318 0.00552233 -0.00093649)
(0.00588336 0.00503768 -0.000471714)
(0.00627115 0.00407554 0.000473041)
(0.00634022 0.000644574 0.00117348)
(0.00607778 -0.00659206 0.00118113)
(0.00245955 -0.0173593 -0.000354428)
(0.00400172 -0.0297704 -0.00412871)
(-0.00665712 -0.0217436 -0.0141915)
(-0.00550418 -0.0132409 -0.010296)
(-0.00859318 -0.00709185 -0.00859318)
(-0.00778383 -0.00325649 -0.00836518)
(-0.00589259 -0.00103255 -0.00806745)
(-0.0036148 -0.000328351 -0.00860066)
(-0.00133625 -0.00093389 -0.00950112)
(0.000660425 -0.000845242 -0.00999121)
(0.00244711 0.000790866 -0.00946865)
(0.00395849 0.00144553 -0.00865702)
(0.00531118 0.000222895 -0.00871909)
(0.00683401 -0.000933083 -0.00870828)
(0.00815364 -0.00154837 -0.00850476)
(0.00930482 -0.00180415 -0.00813326)
(0.0104306 -0.00185705 -0.00764952)
(0.0116003 -0.0021257 -0.00704514)
(0.0123036 -0.00364717 -0.0063148)
(0.0120553 -0.0070467 -0.00574291)
(0.00816356 -0.0131591 -0.00610228)
(0.00739006 -0.0220518 -0.00776233)
(-0.0131519 -0.0114249 -0.0202187)
(-0.0184782 -0.00473666 -0.0212362)
(-0.0237694 -0.00124823 -0.0237694)
(-0.0243636 0.000550164 -0.0265333)
(-0.0231123 0.00166702 -0.0294157)
(-0.0203383 0.00256933 -0.0321168)
(-0.0167463 0.00358924 -0.0346992)
(-0.0119934 0.00496525 -0.0364745)
(-0.00632623 0.00677113 -0.0367739)
(0.00349826 0.00858803 -0.0357894)
(0.0110937 0.00681144 -0.0351951)
(0.0170762 0.00527251 -0.0338524)
(0.0215147 0.00403234 -0.031848)
(0.0246193 0.0029905 -0.0295632)
(0.0266559 0.00207465 -0.0271555)
(0.0277054 0.00121785 -0.0245828)
(0.0276421 0.000167598 -0.0218609)
(0.0259122 -0.00152468 -0.0189645)
(0.0199145 -0.00484481 -0.0159507)
(0.0135695 -0.0113906 -0.0134301)
(0.00630115 -0.00701079 0.0227736)
(0.011609 -0.00477479 0.0223969)
(0.0157109 -0.0024087 0.0198037)
(0.0158646 0.000519425 0.0158646)
(0.011672 0.00440869 0.0116858)
(0.0024335 0.00855718 0.00762262)
(-0.00874491 0.00194896 0.00170734)
(-0.005915 -0.00233556 9.10136e-05)
(-0.00401724 -0.00205849 0.000133764)
(-0.00323543 -0.00151643 0.000706758)
(-0.00273656 -0.00177387 0.0012497)
(-0.00209148 -0.00217291 0.00223676)
(-0.00117106 -0.00143383 0.00433467)
(-0.00414732 0.00344642 0.00800603)
(-0.0139621 0.00377932 0.00991275)
(-0.021182 0.000420068 0.0116533)
(-0.0249979 -0.00282122 0.0140025)
(-0.0240309 -0.00618679 0.0163776)
(-0.0185449 -0.0101487 0.0184438)
(-0.0100899 -0.0152522 0.0188402)
(0.00342694 -0.00457302 0.0105487)
(0.00702441 -0.00147051 0.01269)
(0.0095012 0.00279908 0.0121864)
(0.0101888 0.00782927 0.0101888)
(0.00857966 0.0125682 0.00816901)
(0.00544848 0.015237 0.00704419)
(0.000729591 0.00735289 0.0040717)
(0.000212944 -0.00102155 0.000583204)
(-0.00254118 -0.00241848 -0.000999352)
(-0.00276862 -0.00186853 -0.00105327)
(-0.00386615 -0.0020444 -0.000190023)
(-0.00505768 -0.00187281 0.00181652)
(-0.00701223 0.00070786 0.00447)
(-0.00789406 0.00605866 0.00653665)
(-0.0112175 0.00920557 0.00720492)
(-0.0146269 0.00674796 0.00698031)
(-0.0169868 0.00165837 0.00754183)
(-0.0163842 -0.00518077 0.0091191)
(-0.0124976 -0.0120754 0.00979744)
(-0.00555069 -0.0202248 0.00833724)
(0.00299947 -0.00991248 0.00169027)
(0.00601114 -0.00563038 0.00652404)
(0.00759469 -0.000897661 0.0086956)
(0.0086666 0.00616954 0.0086666)
(0.00852533 0.0133935 0.00758924)
(0.00771047 0.0169106 0.00692019)
(0.00577674 0.0095313 0.00503278)
(0.00437963 0.00193933 0.00248568)
(0.00122981 -0.00110975 0.000204039)
(-0.00116741 -0.00170298 -0.00143672)
(-0.00335242 -0.00217809 -0.0012441)
(-0.0058007 -0.00223994 0.000742177)
(-0.00820485 8.12139e-05 0.00317022)
(-0.0089942 0.00523255 0.00507872)
(-0.00978222 0.00902886 0.005731)
(-0.0111228 0.00654267 0.00540955)
(-0.011933 -0.000241567 0.00577795)
(-0.0111235 -0.00831078 0.00678685)
(-0.00887334 -0.016925 0.00620966)
(-0.00323056 -0.0265471 0.00289005)
(0.0030654 -0.0141579 -0.00310967)
(0.00696675 -0.00644231 0.00266314)
(0.00761045 -0.00102445 0.00648543)
(0.00798426 0.00575097 0.00798426)
(0.00828731 0.0128198 0.0078935)
(0.00866971 0.0161594 0.00743071)
(0.00811293 0.0103524 0.00628197)
(0.00680182 0.00411153 0.00474226)
(0.00427548 0.00152209 0.00297351)
(0.00174725 0.00060324 0.000686874)
(-0.00101604 -0.000727784 -0.000813519)
(-0.00414528 -0.00112686 0.000516504)
(-0.00672132 0.000974403 0.00289116)
(-0.00782503 0.00455181 0.00464653)
(-0.00763935 0.00830538 0.00557993)
(-0.00751462 0.00772781 0.00602614)
(-0.00733466 0.0021466 0.00695976)
(-0.00719275 -0.00740221 0.00719128)
(-0.00661647 -0.0177578 0.00529503)
(-0.00174185 -0.029178 0.000337315)
(0.00193336 -0.0194084 -0.00557498)
(0.00724195 -0.00759147 0.000662217)
(0.00731371 -0.00128697 0.00497424)
(0.00725892 0.00531816 0.00725892)
(0.00738362 0.0118856 0.00807129)
(0.00826795 0.0148369 0.0079624)
(0.00836778 0.0107058 0.00725296)
(0.00718375 0.0060801 0.00625382)
(0.00499021 0.00405515 0.00490351)
(0.00286857 0.00331306 0.00310859)
(0.00114015 0.00237302 0.00167591)
(-0.000979638 0.00172194 0.00201856)
(-0.00327939 0.00278495 0.00375311)
(-0.00470621 0.00478083 0.00511724)
(-0.00468551 0.00757669 0.0061712)
(-0.00407685 0.00811758 0.00727719)
(-0.00361697 0.00351739 0.00846802)
(-0.0037749 -0.00609301 0.00793255)
(-0.00490359 -0.0174374 0.0049876)
(-0.00042836 -0.030762 -0.00101519)
(0.00018199 -0.0236357 -0.00739781)
(0.00654732 -0.00846367 -0.000567831)
(0.00609301 -0.000777289 0.00367615)
(0.00599462 0.00566253 0.00599462)
(0.00599448 0.0112269 0.00722031)
(0.00696255 0.0136233 0.00751453)
(0.00739186 0.0108145 0.00706108)
(0.006528 0.00757602 0.00631724)
(0.00486497 0.00607744 0.00534059)
(0.00324436 0.00540801 0.00412458)
(0.00197997 0.00460558 0.00314423)
(0.000805529 0.00413713 0.00314616)
(-0.000532407 0.0046637 0.00399477)
(-0.00151999 0.00570027 0.00500685)
(-0.00165961 0.00738935 0.00606097)
(-0.0011094 0.00827336 0.0074254)
(-0.000794417 0.00478858 0.00864073)
(-0.000902298 -0.00435827 0.00780314)
(-0.00334237 -0.0162954 0.00411236)
(0.000927924 -0.0314161 -0.00216272)
(-0.00185595 -0.0262004 -0.00943139)
(0.00473101 -0.00971886 -0.00237826)
(0.00395404 -0.000829675 0.00194736)
(0.0038904 0.0057902 0.0038904)
(0.00405425 0.0102744 0.00510885)
(0.00526894 0.0119935 0.00560925)
(0.00612982 0.0100494 0.00539275)
(0.00590825 0.00785377 0.00499431)
(0.00493467 0.0068483 0.0045488)
(0.0037489 0.00632179 0.00394356)
(0.00272821 0.00545791 0.00329553)
(0.00192884 0.00477865 0.00312738)
(0.00117616 0.0048379 0.00339767)
(0.000654396 0.00541463 0.00390044)
(0.000648654 0.00654653 0.00468449)
(0.00125046 0.00739501 0.00594086)
(0.00140858 0.00471063 0.00698006)
(0.00163934 -0.0026217 0.00623386)
(-0.00132291 -0.0147051 0.00223097)
(0.00253322 -0.0305407 -0.00360917)
(-0.00425904 -0.0256895 -0.0120104)
(0.000617364 -0.0107632 -0.00568746)
(-0.000620363 0.00109129 -0.00111736)
(0.000770737 0.00693652 0.000770737)
(0.00125596 0.00970088 0.00148151)
(0.00318162 0.0104784 0.00184395)
(0.00476333 0.00924959 0.00165256)
(0.00549833 0.00822079 0.00149387)
(0.0053605 0.00805064 0.00160156)
(0.00449806 0.00817098 0.00167585)
(0.00357073 0.00743745 0.00125238)
(0.00305338 0.00661418 0.00100664)
(0.00271805 0.00613744 0.00101382)
(0.00263333 0.00603184 0.00125676)
(0.00293013 0.00642644 0.00182817)
(0.00368761 0.00693243 0.00282153)
(0.00411899 0.0051395 0.0034998)
(0.00470248 -0.000996088 0.00244671)
(0.00217547 -0.0126649 -0.000978878)
(0.00475163 -0.0272964 -0.00570083)
(-0.00800959 -0.0208764 -0.0157385)
(-0.00634067 -0.0106586 -0.0109771)
(-0.00836518 -0.00325649 -0.00778383)
(-0.00654757 0.00122451 -0.00654757)
(-0.00484906 0.00301108 -0.00655565)
(-0.00223073 0.0028002 -0.00699072)
(-1.91773e-05 0.00159019 -0.00818916)
(0.00164017 0.00135586 -0.00920747)
(0.00321652 0.00281577 -0.00916677)
(0.00447181 0.00367736 -0.00841642)
(0.0054908 0.00247794 -0.00843971)
(0.00666721 0.00109726 -0.00810393)
(0.0073904 0.000410297 -0.00757359)
(0.0078897 0.000270866 -0.00691222)
(0.00845898 0.000588081 -0.00601428)
(0.00932796 0.00110345 -0.00478235)
(0.00997905 5.88038e-05 -0.00374315)
(0.0109447 -0.00384888 -0.00438159)
(0.00819305 -0.0108659 -0.00636145)
(0.00831887 -0.0210122 -0.00905383)
(-0.015273 -0.0106958 -0.0215925)
(-0.0212118 -0.00322157 -0.0223413)
(-0.0265333 0.000550164 -0.0243636)
(-0.0264628 0.0024974 -0.0264628)
(-0.0249333 0.00366543 -0.0291906)
(-0.0224016 0.00465954 -0.0325499)
(-0.0190734 0.00590502 -0.0361157)
(-0.0143792 0.00756997 -0.0390101)
(-0.00811536 0.00973221 -0.0403501)
(0.00308942 0.0121654 -0.0398549)
(0.0124802 0.00982846 -0.0384516)
(0.0190684 0.00778175 -0.0361511)
(0.0235241 0.00616355 -0.0331915)
(0.0262627 0.00484878 -0.0300639)
(0.0278058 0.00375021 -0.0269955)
(0.0285494 0.00280937 -0.0240122)
(0.0286901 0.00173042 -0.021322)
(0.0274571 -3.10289e-05 -0.0188431)
(0.0215815 -0.00352216 -0.0163368)
(0.0150442 -0.010622 -0.0142976)
(0.00569593 -0.000617517 0.0173133)
(0.00945998 0.000639966 0.0174591)
(0.012267 0.00217334 0.0152884)
(0.0116858 0.00440869 0.011672)
(0.00770216 0.00757475 0.00770216)
(-0.00074554 0.00890271 0.00330724)
(-0.00698905 2.90332e-06 -0.000230215)
(-0.00410583 -0.00253939 -3.00931e-06)
(-0.00282117 -0.00184993 0.000871142)
(-0.00261422 -0.00146738 0.00202629)
(-0.0026749 -0.00180048 0.0026801)
(-0.00214777 -0.00227279 0.00350178)
(-0.00120121 -0.00195179 0.00545242)
(-0.00226876 0.00314134 0.00829392)
(-0.0111558 0.00449411 0.0103164)
(-0.0176304 0.00152069 0.0124154)
(-0.0211346 -0.00139898 0.0151576)
(-0.0205037 -0.00416287 0.0176997)
(-0.0157786 -0.00723129 0.0194233)
(-0.00890584 -0.011146 0.0190507)
(0.00306165 0.00773348 0.00873129)
(0.00555341 0.00853999 0.0104832)