/*--------------------------------*- C++ -*----------------------------------*\
  =========                 |
  \\      /  F ield         | OpenFOAM: The Open Source CFD Toolbox
   \\    /   O peration     | Website:  https://openfoam.org
    \\  /    A nd           | Version:  8
     \\/     M anipulation  |
\*---------------------------------------------------------------------------*/
FoamFile
{
    version     2.0;
    format      ascii;
    class       volScalarField;
    location    "1000";
    object      alphat;
}
// * * * * * * * * * * * * * * * * * * * * * * * * * * * * * * * * * * * * * //

dimensions      [1 -1 -1 0 0 0 0];

internalField   nonuniform List<scalar> 
4000
(
0.000384412
0.000378793
0.000368912
0.000355562
0.000340228
0.000321244
0.00028637
0.000205625
0.000149714
0.000134814
0.00012837
0.000127051
0.000128099
0.000134967
0.000233582
0.000292655
0.000314041
0.000326037
0.000337876
0.000348637
0.000400803
0.00039506
0.00037917
0.000354693
0.000321673
0.000293769
0.000264917
0.000218829
0.000186835
0.000163355
0.000151129
0.000145032
0.000143797
0.000169533
0.000219775
0.000269901
0.000295162
0.000322055
0.000348384
0.000364893
0.000410234
0.000408272
0.000393176
0.000367419
0.000329279
0.000284018
0.000252116
0.000225148
0.000203088
0.000181492
0.000165255
0.000159675
0.000164967
0.000182094
0.000207609
0.00024483
0.000288528
0.000329648
0.000360569
0.000373999
0.000415598
0.000418428
0.000408452
0.000390397
0.000367058
0.000341489
0.000316941
0.000293683
0.000268577
0.00024271
0.000239756
0.000244964
0.000257757
0.000274894
0.000289964
0.000308573
0.000330465
0.000353588
0.000372491
0.000378902
0.000419621
0.000427637
0.000425305
0.000417017
0.00040551
0.000391906
0.000377252
0.000361794
0.000344144
0.000327643
0.000330183
0.000335279
0.000341109
0.00034725
0.000353565
0.000360812
0.00036949
0.000378673
0.000385176
0.00038278
0.000423442
0.00043682
0.00044153
0.00044101
0.000437566
0.00043139
0.000422529
0.000411115
0.000397369
0.000382994
0.000383961
0.000387104
0.000390336
0.000393133
0.000395361
0.000397031
0.000398049
0.000398238
0.000395696
0.000385655
0.000427475
0.000446333
0.000457424
0.000463208
0.000465517
0.00046432
0.000459418
0.000450935
0.000439239
0.000425489
0.000424983
0.000426657
0.000428011
0.000428302
0.000427149
0.00042444
0.000420029
0.000413904
0.00040453
0.000387861
0.000432236
0.000457223
0.000474409
0.000485927
0.000493176
0.000495934
0.000493828
0.000487108
0.000476504
0.000462193
0.000460159
0.000460408
0.000459941
0.000457899
0.000453917
0.000447754
0.000439103
0.000427981
0.000412904
0.000390086
0.000438498
0.000469908
0.000493285
0.000509873
0.000521362
0.000527743
0.000528548
0.000524216
0.000515158
0.000499337
0.000495032
0.000493059
0.000490247
0.00048569
0.000479003
0.000469924
0.000457992
0.000442948
0.000422738
0.000393663
0.000446758
0.000480849
0.000506828
0.000524941
0.000537977
0.000546917
0.000552108
0.000553491
0.00055066
0.000538397
0.000529369
0.000521934
0.000514126
0.000505492
0.000495771
0.000484602
0.000471335
0.00045477
0.000431812
0.000399277
0.000378793
0.0003837
0.000377802
0.000365001
0.000348697
0.000328422
0.000295545
0.000235075
0.000171406
0.000156819
0.000150297
0.000146869
0.000145891
0.000172148
0.000259334
0.000306224
0.000328054
0.000342505
0.000354327
0.00035374
0.00039506
0.000531893
0.000557574
0.000528303
0.000473064
0.000406753
0.000344242
0.000294913
0.000294148
0.000329098
0.000379931
0.000389268
0.000307443
0.000249359
0.000292114
0.000360677
0.000419782
0.000471261
0.00049669
0.000371199
0.000408272
0.000595538
0.000641335
0.000607799
0.000524309
0.000435524
0.000374144
0.000336302
0.000322952
0.000335414
0.000366926
0.000373714
0.000306232
0.000271415
0.000297692
0.000351285
0.00042729
0.00052766
0.000573284
0.000381446
0.000418428
0.000646013
0.000714371
0.000688664
0.000584543
0.00046596
0.000399393
0.000352924
0.000318747
0.000301672
0.000301325
0.00029908
0.000287234
0.000290906
0.000319952
0.000371399
0.000461979
0.000589157
0.000631541
0.000387385
0.000427637
0.000686842
0.00077644
0.000774076
0.000694252
0.000571888
0.000460736
0.000396039
0.000351614
0.000327546
0.000327191
0.00033282
0.000341048
0.000358388
0.000390613
0.000459934
0.000565959
0.000660305
0.000661622
0.000391887
0.00043682
0.000714903
0.000821201
0.000853978
0.000838437
0.000772345
0.000667003
0.000547348
0.000465329
0.000428941
0.000435491
0.000452682
0.000475258
0.000511673
0.000576313
0.000647533
0.000700652
0.000723169
0.000671059
0.000395684
0.000446333
0.000730253
0.000845313
0.000911411
0.000957241
0.000969122
0.000941501
0.000877106
0.000784156
0.000708999
0.000727005
0.000769189
0.000811773
0.000844402
0.000851936
0.000839499
0.000806832
0.000756648
0.000665206
0.000399674
0.000457223
0.00072403
0.000837941
0.000914904
0.000969301
0.000992294
0.000982788
0.000946747
0.000906895
0.000886455
0.000886207
0.000900636
0.000913186
0.000917145
0.000906363
0.000875623
0.000820687
0.00074777
0.000645813
0.000405195
0.000469908
0.00068291
0.000798275
0.00088901
0.000954814
0.000991236
0.000992538
0.0009632
0.000923064
0.000882844
0.000869338
0.00087714
0.000884826
0.000882671
0.000864511
0.000827982
0.000768424
0.000691904
0.000600643
0.000412427
0.000480849
0.000518777
0.000548185
0.000569657
0.000585921
0.000597734
0.000605146
0.000607799
0.000604718
0.000590972
0.000578305
0.000567867
0.00055689
0.000544965
0.000531939
0.000517501
0.000500994
0.000481264
0.000455035
0.000418903
0.000368912
0.000377802
0.000374635
0.0003635
0.000347877
0.000326716
0.000291662
0.000230359
0.000177726
0.000170102
0.000164683
0.000159876
0.000156764
0.000187864
0.000269919
0.000314245
0.000336241
0.00035137
0.000361604
0.000355108
0.00037917
0.000557574
0.000612962
0.000597116
0.000532358
0.000446421
0.000371507
0.000327656
0.000353308
0.000425747
0.000505953
0.000524342
0.00039555
0.000298227
0.000333846
0.000414999
0.000495902
0.000551335
0.000556102
0.00037228
0.000393176
0.000641335
0.000726188
0.000711663
0.000628181
0.000522937
0.000440768
0.000402217
0.000408125
0.000458759
0.00053869
0.000565642
0.000426612
0.000336734
0.000355247
0.000428366
0.000532777
0.000647027
0.000660957
0.000383072
0.000408452
0.000714371
0.000824044
0.000809867
0.000694158
0.000561375
0.00047346
0.000423475
0.000401439
0.000414869
0.00045262
0.000455327
0.000384341
0.000333527
0.000354061
0.000419176
0.000547705
0.000733711
0.000745001
0.000389807
0.000425305
0.00077644
0.000906083
0.000902124
0.000781824
0.000621742
0.000502427
0.00043028
0.000388452
0.000378822
0.000386742
0.000382817
0.000359588
0.000350298
0.000377522
0.000454522
0.000608134
0.000807991
0.000798366
0.000395218
0.00044153
0.000821201
0.000967133
0.000986932
0.000896725
0.000747784
0.000616787
0.000513698
0.000448533
0.000426895
0.000431126
0.000434442
0.000434053
0.000448088
0.000494349
0.000580287
0.000722483
0.000860675
0.000815987
0.000400811
0.000457424
0.000845313
0.00100697
0.00106523
0.00103709
0.000934422
0.000829851
0.000736548
0.000662012
0.000623694
0.000632072
0.000648264
0.000661273
0.000679517
0.000710274
0.000763974
0.000847286
0.000889737
0.00079802
0.000408132
0.000474409
0.000837941
0.00102756
0.00114305
0.00119933
0.00119156
0.00113143
0.00104272
0.000952059
0.000901266
0.00091927
0.00095081
0.000971417
0.000984149
0.000994069
0.00100452
0.000976745
0.000897689
0.00075944
0.000417417
0.000493285
0.000798275
0.00102825
0.00122198
0.00134342
0.00140719
0.00140597
0.00132846
0.00122803
0.00114729
0.00116285
0.0012027
0.00123186
0.00123694
0.00120817
0.00114931
0.00104349
0.000884032
0.000700791
0.000428603
0.000506828
0.000548185
0.000580288
0.000604538
0.000623491
0.000637683
0.000647101
0.000651309
0.000648504
0.000633251
0.000617278
0.000604175
0.000590486
0.000575911
0.000560411
0.000543628
0.000524801
0.000502894
0.000474683
0.000436556
0.000355562
0.000365001
0.0003635
0.000353969
0.000338987
0.000315018
0.000272067
0.000209189
0.000183245
0.000181279
0.000177369
0.000170209
0.000164208
0.000188755
0.000269454
0.000315665
0.00033816
0.000352905
0.000361018
0.000351503
0.000354693
0.000528303
0.000597116
0.000589725
0.000516538
0.000433542
0.000369039
0.000355829
0.000413794
0.000524066
0.000623354
0.000625868
0.000460894
0.000336577
0.000357203
0.000442423
0.000533288
0.000587836
0.000572153
0.000366397
0.000367419
0.000607799
0.000711663
0.0007239
0.000647743
0.000543088
0.000469967
0.000451436
0.000488291
0.000587166
0.00070891
0.000721757
0.000519012
0.000391287
0.000400764
0.000486442
0.000605748
0.000707248
0.000688491
0.000377629
0.000390397
0.000688664
0.000809867
0.000819672
0.000732073
0.000616139
0.000533672
0.000495014
0.000499279
0.000566659
0.000661729
0.000665977
0.000507147
0.000395282
0.000404064
0.000485447
0.000636707
0.00080855
0.000787045
0.000386112
0.000417017
0.000774076
0.000902124
0.000910106
0.000814503
0.000677773
0.000571768
0.000508304
0.000489959
0.000533607
0.000591361
0.000575379
0.000473951
0.000396312
0.000404556
0.00048825
0.000671477
0.000889884
0.000859979
0.00039401
0.00044101
0.000853978
0.000986932
0.000998262
0.00091281
0.000774758
0.000655587
0.000573222
0.000542532
0.000572912
0.000606639
0.000583203
0.000514869
0.000465931
0.000476214
0.000556657
0.000735007
0.000944794
0.000896285
0.000402647
0.000463208
0.000911411
0.00106523
0.00111098
0.0010672
0.000962372
0.000862323
0.000788088
0.000753163
0.000763464
0.000785176
0.000768407
0.000722011
0.000682476
0.000677383
0.000727737
0.000853642
0.000969775
0.000884041
0.000413061
0.000485927
0.000914904
0.00114305
0.00129547
0.00131441
0.00127048
0.00120594
0.00113124
0.00105789
0.00101775
0.00103307
0.00104311
0.00103355
0.00101749
0.00100856
0.00101974
0.00105231
0.000999826
0.000834131
0.000425513
0.000509873
0.00088901
0.00122198
0.00148712
0.00157051
0.0015778
0.00153931
0.00145606
0.00134998
0.00126303
0.00127131
0.00130898
0.00133963
0.00134906
0.00133493
0.00130085
0.00124577
0.00104015
0.000773945
0.000439913
0.000524941
0.000569657
0.000604538
0.000631796
0.000654199
0.000671369
0.000683492
0.000690241
0.000689941
0.000675182
0.000653446
0.00063603
0.000619067
0.000601816
0.000583894
0.000564656
0.000543181
0.00051903
0.000488687
0.000448476
0.000340228
0.000348697
0.000347877
0.000338987
0.000321581
0.0002899
0.000236153
0.000193064
0.000190053
0.000193257
0.000190688
0.00017893
0.000168801
0.000182299
0.000259036
0.000310753
0.000334611
0.00034841
0.000354433
0.000343108
0.000321673
0.000473064
0.000532358
0.000516538
0.000457763
0.000396197
0.000364327
0.000398029
0.000496645
0.000640199
0.000729412
0.000681621
0.000500022
0.000368413
0.000366355
0.000444976
0.000536789
0.000592523
0.000563462
0.000353121
0.000329279
0.000524309
0.000628181
0.000647743
0.000589669
0.000517553
0.000482417
0.000500513
0.000585127
0.000747976
0.000878913
0.0008164
0.000574145
0.000432774
0.000432414
0.000517383
0.000637804
0.000723966
0.000684878
0.000364565
0.000367058
0.000584543
0.000694158
0.000732073
0.00068755
0.000614562
0.000565972
0.000558348
0.000618692
0.000766146
0.000886279
0.00083105
0.000592532
0.00045021
0.000451773
0.0005407
0.00069268
0.000833088
0.000795583
0.000375924
0.00040551
0.000694252
0.000781824
0.000814503
0.000772506
0.000691244
0.000623035
0.000593316
0.000641958
0.000777227
0.000872591
0.00081032
0.000600946
0.000462093
0.000453397
0.000541824
0.000725203
0.000919994
0.000888359
0.000388038
0.000437566
0.000838437
0.000896725
0.00091281
0.000872726
0.00079076
0.000714298
0.000679441
0.000730766
0.000849756
0.000913416
0.000841666
0.000672541
0.000540689
0.000509343
0.000577588
0.000761549
0.000981711
0.000946907
0.000400349
0.000465517
0.000957241
0.00103709
0.0010672
0.00105028
0.00099268
0.000935212
0.000909887
0.00094161
0.00101107
0.00104036
0.000978779
0.000863929
0.00076295
0.000714849
0.000740775
0.000867555
0.00101167
0.000936594
0.000413831
0.000493176
0.000969301
0.00119933
0.00131441
0.00133699
0.0013208
0.00128413
0.00123241
0.00117847
0.00115188
0.00115174
0.00113661
0.00110196
0.00106827
0.00104266
0.00103763
0.00107288
0.00105246
0.000876417
0.000428724
0.000521362
0.000954814
0.00134342
0.00157051
0.00164511
0.0016608
0.00161759
0.00152773
0.00142422
0.00133651
0.0013222
0.00134828
0.00138639
0.00140931
0.00140336
0.0013661
0.00130633
0.00112213
0.000814826
0.000445892
0.000537977
0.000585921
0.000623491
0.000654199
0.000679927
0.000700372
0.000716372
0.000727849
0.000732678
0.000719578
0.000689873
0.000665931
0.000644279
0.000623663
0.000603136
0.000581625
0.000557749
0.00053077
0.000498186
0.000455887
0.000321244
0.000328422
0.000326716
0.000315018
0.0002899
0.000245751
0.000201539
0.000192798
0.000199664
0.000209138
0.000206389
0.000185821
0.00017131
0.000175257
0.000239322
0.000299491
0.000326467
0.000339322
0.000343516
0.000331084
0.000293769
0.000406753
0.000446421
0.000433542
0.000396197
0.000368988
0.000387338
0.000458852
0.000602582
0.000756434
0.000804955
0.00068116
0.000510643
0.000394615
0.000368258
0.000428476
0.000512642
0.000571071
0.000536582
0.000334305
0.000284018
0.000435524
0.000522937
0.000543088
0.000517553
0.000494686
0.00050501
0.000567305
0.000720822
0.000913229
0.000992164
0.000832652
0.000592176
0.000459351
0.000449729
0.000520868
0.000629701
0.000703706
0.000654774
0.000346836
0.000341489
0.00046596
0.000561375
0.000616139
0.000614562
0.000593836
0.000589854
0.000637365
0.000786139
0.000969794
0.0010404
0.000889072
0.000634033
0.000488736
0.000485533
0.000568584
0.000703756
0.000815933
0.000774665
0.000363224
0.000391906
0.000571888
0.000621742
0.000677773
0.000691244
0.000671415
0.00065629
0.000698002
0.000844958
0.00101559
0.00106702
0.000925131
0.000683642
0.000519848
0.000499776
0.000584014
0.000748174
0.000910431
0.000890395
0.000380015
0.00043139
0.000772345
0.000747784
0.000774758
0.00079076
0.000776289
0.000765588
0.000817006
0.000952286
0.00109976
0.00111305
0.000989397
0.000791329
0.000622016
0.000561992
0.00061446
0.00077869
0.000981609
0.000977709
0.000395154
0.00046432
0.000969122
0.000934422
0.000962372
0.00099268
0.000997586
0.00100397
0.00104686
0.00113246
0.00122287
0.00118661
0.0010948
0.000965943
0.000841045
0.000767829
0.000768519
0.000878054
0.00102948
0.000967943
0.000410748
0.000495934
0.000992294
0.00119156
0.00127048
0.0013208
0.00134429
0.00134139
0.00131506
0.00129442
0.0012807
0.00121624
0.00117622
0.00113448
0.00109708
0.00106781
0.00104966
0.0010731
0.00107546
0.000894538
0.00042716
0.000527743
0.000991236
0.00140719
0.0015778
0.0016608
0.00167537
0.0016301
0.00155728
0.00149423
0.00142069
0.00135229
0.00133293
0.0013655
0.00140533
0.00141699
0.00138537
0.00131724
0.00115512
0.000826254
0.000446487
0.000546917
0.000597734
0.000637683
0.000671369
0.000700372
0.000725134
0.000747155
0.00076664
0.000780523
0.00077059
0.000729694
0.000695529
0.000666763
0.000641402
0.000617519
0.000593365
0.000567139
0.000537764
0.000503257
0.000459234
0.00028637
0.000295545
0.000291662
0.000272067
0.000236153
0.000201539
0.000193287
0.000198846
0.000213313
0.000229333
0.000220364
0.000189611
0.000174711
0.00017423
0.000214384
0.00028097
0.000314355
0.000327245
0.000329464
0.000316262
0.000264917
0.000344242
0.000371507
0.000369039
0.000364327
0.000387338
0.000441366
0.000551657
0.000699959
0.000814994
0.000802723
0.000633507
0.000490585
0.000410471
0.000372982
0.00040338
0.000469355
0.000523439
0.000492555
0.000309847
0.000252116
0.000374144
0.000440768
0.000469967
0.000482417
0.00050501
0.000557395
0.000673585
0.00085173
0.000992144
0.00097067
0.000786365
0.000585976
0.00047368
0.000456447
0.000504525
0.000587767
0.000643976
0.000591141
0.000323901
0.000316941
0.000399393
0.00047346
0.000533672
0.000565972
0.000589854
0.000640103
0.000765274
0.000949375
0.00110674
0.00104235
0.000852208
0.000644949
0.000512892
0.000502788
0.00056806
0.000671874
0.000751685
0.000709254
0.000349018
0.000377252
0.000460736
0.000502427
0.000571768
0.000623035
0.00065629
0.000714544
0.000846533
0.00105217
0.001242
0.00112285
0.00090996
0.00072035
0.000563664
0.000533088
0.000601852
0.000733757
0.000861503
0.000853604
0.000370355
0.000422529
0.000667003
0.000616787
0.000655587
0.000714298
0.000765588
0.000843788
0.000973636
0.00120675
0.00139589
0.00119352
0.000986861
0.000843784
0.000685697
0.000610181
0.000643188
0.000776028
0.000951178
0.000985083
0.000387859
0.000459418
0.000941501
0.000829851
0.000862323
0.000935212
0.00100397
0.00108239
0.00119022
0.00140634
0.00150681
0.00126719
0.00107132
0.00100347
0.000894185
0.000811667
0.000792967
0.000873966
0.00102101
0.000989318
0.000404496
0.000493828
0.000982788
0.00113143
0.00120594
0.00128413
0.00134139
0.00137086
0.00141591
0.00154345
0.00154883
0.00133429
0.00117148
0.00112097
0.00108925
0.00106552
0.00104337
0.00105509
0.00107607
0.000896784
0.000421206
0.000528548
0.000992538
0.00140597
0.00153931
0.00161759
0.0016301
0.00160857
0.00160922
0.00164563
0.00159553
0.00143666
0.00130866
0.001302
0.00134766
0.00137783
0.00135824
0.00128853
0.00115058
0.000810374
0.000441679
0.000552108
0.000605146
0.000647101
0.000683492
0.000716372
0.000747155
0.000778192
0.00081011
0.000837991
0.000831898
0.00077679
0.000727161
0.000687905
0.000655869
0.000627542
0.000600119
0.000571286
0.000539834
0.000503856
0.000458758
0.000205625
0.000235075
0.000230359
0.000209189
0.000193064
0.000192798
0.000198846
0.000211212
0.000231742
0.000242461
0.00021766
0.000193777
0.00018249
0.000180201
0.000195308
0.000254388
0.000298148
0.000313508
0.000314185
0.000300392
0.000218829
0.000294913
0.000327656
0.000355829
0.000398029
0.000458852
0.000551657
0.000655299
0.000748767
0.000827367
0.000738326
0.000552229
0.000452647
0.000412065
0.00038518
0.000383116
0.000421439
0.000462019
0.000440836
0.000279874
0.000225148
0.000336302
0.000402217
0.000451436
0.000500513
0.000567305
0.000673585
0.000801914
0.000966866
0.00112985
0.000941525
0.000700674
0.000571376
0.000483563
0.000458162
0.000479802
0.000528341
0.000559527
0.000499167
0.000298121
0.000293683
0.000352924
0.000423475
0.000495014
0.000558348
0.000637365
0.000765274
0.00092294
0.00120582
0.00139319
0.00107665
0.000769133
0.000640961
0.0005316
0.000507441
0.0005462
0.00060874
0.000643866
0.00059292
0.000333212
0.000361794
0.000396039
0.00043028
0.000508304
0.000593316
0.000698002
0.000846533
0.00105947
0.00148067
0.00161278
0.00122972
0.000857531
0.000720281
0.000598604
0.000552457
0.000594444
0.000683016
0.000764069
0.000769491
0.000359444
0.000411115
0.000547348
0.000513698
0.000573222
0.000679441
0.000817006
0.000973636
0.00125694
0.00174127
0.00179135
0.0013805
0.000975931
0.000833082
0.000728637
0.000644642
0.00065313
0.000746387
0.000882366
0.000960559
0.000379057
0.000450935
0.000877106
0.000736548
0.000788088
0.000909887
0.00104686
0.00119022
0.00151105
0.00192547
0.00188273
0.00149802
0.00109848
0.000971482
0.000917961
0.000836476
0.00080261
0.000850155
0.000976834
0.00100398
0.000395882
0.000487108
0.000946747
0.00104272
0.00113124
0.00123241
0.00131506
0.00141591
0.00167915
0.001951
0.00188392
0.00157543
0.00120379
0.00107369
0.00104926
0.00103297
0.00101557
0.00102092
0.00104769
0.000891448
0.000411711
0.000524216
0.0009632
0.00132846
0.00145606
0.00152773
0.00155728
0.00160922
0.00174888
0.00190263
0.00183558
0.00161115
0.00131787
0.00123007
0.00126431
0.00130382
0.00129491
0.00122792
0.00111126
0.000772045
0.000431972
0.000553491
0.000607799
0.000651309
0.000690241
0.000727849
0.00076664
0.00081011
0.00085904
0.000904015
0.000897223
0.000830743
0.000760602
0.000707358
0.000666796
0.000632988
0.000601682
0.000569952
0.000536652
0.000499758
0.000454433
0.000149714
0.000171406
0.000177726
0.000183245
0.000190053
0.000199664
0.000213313
0.000231742
0.0002462
0.000257606
0.000226566
0.000209924
0.000200566
0.000192931
0.000193559
0.000226022
0.000276218
0.000297712
0.000298673
0.00028551
0.000186835
0.000294148
0.000353308
0.000413794
0.000496645
0.000602582
0.000699959
0.000748767
0.000821521
0.000756582
0.000603505
0.000492413
0.000432503
0.00041539
0.000395966
0.000376832
0.00038156
0.000404227
0.000388975
0.000251272
0.000203088
0.000322952
0.000408125
0.000488291
0.000585127
0.000720822
0.00085173
0.000966866
0.00115673
0.00108346
0.000860749
0.000675113
0.000556486
0.000497905
0.000460539
0.000455977
0.000470006
0.000476442
0.000420449
0.000274325
0.000268577
0.000318747
0.000401439
0.000499279
0.000618692
0.000786139
0.000949375
0.00120582
0.00148402
0.00131564
0.00108753
0.000830296
0.000639088
0.000553673
0.000506936
0.000513818
0.000536374
0.000534096
0.000476788
0.000318439
0.000344144
0.000351614
0.000388452
0.000489959
0.000641958
0.000844958
0.00105217
0.00148067
0.00176306
0.00148948
0.00129743
0.000974162
0.000720504
0.000628459
0.000561618
0.00056866
0.00061125
0.000646065
0.000655081
0.000348486
0.000397369
0.000465329
0.000448533
0.000542532
0.000730766
0.000952286
0.00120675
0.00174127
0.00195121
0.00162588
0.0014877
0.00110399
0.000818609
0.000751505
0.000662915
0.000643466
0.000694678
0.000792579
0.000913338
0.000369719
0.000439239
0.000784156
0.000662012
0.000753163
0.00094161
0.00113246
0.00140634
0.00192547
0.00204726
0.00172953
0.00164337
0.00120658
0.000933821
0.000913533
0.000841915
0.000794539
0.000811076
0.000910127
0.00101049
0.000386115
0.000476504
0.000906895
0.000952059
0.00105789
0.00117847
0.00129442
0.00154345
0.001951
0.00207531
0.00180642
0.001755
0.0012754
0.0010292
0.00101091
0.000994128
0.000979117
0.000978632
0.0010038
0.00088649
0.000400429
0.000515158
0.000923064
0.00122803
0.00134998
0.00142422
0.00149423
0.00164563
0.00190263
0.00205019
0.00186147
0.0017739
0.00134565
0.00117703
0.00119582
0.00122968
0.00121897
0.00115164
0.00103713
0.000728331
0.000419417
0.00055066
0.000604718
0.000648504
0.000689941
0.000732678
0.000780523
0.000837991
0.000904015
0.000958393
0.000931471
0.000879225
0.000789398
0.000721315
0.000671984
0.000632578
0.00059728
0.000562664
0.000527873
0.000490797
0.000446117
0.000134814
0.000156819
0.000170102
0.000181279
0.000193257
0.000209138
0.000229333
0.000242461
0.000257606
0.000667496
0.000693065
0.000271835
0.000254135
0.000231851
0.000210377
0.000212739
0.00025189
0.000277636
0.000280559
0.000265951
0.000163355
0.000329098
0.000425747
0.000524066
0.000640199
0.000756434
0.000814994
0.000827367
0.000756582
0.000650842
0.000713828
0.000572109
0.00046273
0.000428524
0.000407306
0.00037926
0.000354925
0.00035647
0.00034525
0.000237833
0.000181492
0.000335414
0.000458759
0.000587166
0.000747976
0.000913229
0.000992144
0.00112985
0.00108346
0.000799893
0.000928122
0.000794582
0.000572723
0.00050947
0.000464584
0.000436639
0.000422127
0.000410779
0.000370274
0.00025495
0.00024271
0.000301672
0.000414869
0.000566659
0.000766146
0.000969794
0.00110674
0.00139319
0.00131564
0.000916172
0.00114201
0.000935437
0.000655597
0.000571074
0.000506237
0.000480918
0.000472539
0.000455302
0.000422453
0.000308636
0.000327643
0.000327546
0.000378822
0.000533607
0.000777227
0.00101559
0.001242
0.00161278
0.00148948
0.00103071
0.00134659
0.00103448
0.000727982
0.00064477
0.00056404
0.00053615
0.000541444
0.000551501
0.000567031
0.00034011
0.000382994
0.000428941
0.000426895
0.000572912
0.000849756
0.00109976
0.00139589
0.00179135
0.00162588
0.00115321
0.00153368
0.00111308
0.000805647
0.000750879
0.00066616
0.000622036
0.000637257
0.000710948
0.000868013
0.000361947
0.000425489
0.000708999
0.000623694
0.000763464
0.00101107
0.00122287
0.00150681
0.00188273
0.00172953
0.00128234
0.00168934
0.0011781
0.00090784
0.000896198
0.0008339
0.000777084
0.000767825
0.000847564
0.00101257
0.000377628
0.000462193
0.000886455
0.000901266
0.00101775
0.00115188
0.0012807
0.00154883
0.00188392
0.00180642
0.00141357
0.00179676
0.0012323
0.00102076
0.00100829
0.000983484
0.00095822
0.000944748
0.00096502
0.000893731
0.00038993
0.000499337
0.000882844
0.00114729
0.00126303
0.00133651
0.00142069
0.00159553
0.00183558
0.00186147
0.00155295
0.00180263
0.00130562
0.00116242
0.00119021
0.00120148
0.00116981
0.00109454
0.000983984
0.000706258
0.000406619
0.000538397
0.000590972
0.000633251
0.000675182
0.000719578
0.00077059
0.000831898
0.000897223
0.000931471
0.000835761
0.000883899
0.000789898
0.000717325
0.000665447
0.000623618
0.000586087
0.000549788
0.000514324
0.000478081
0.000434391
0.00012837
0.000150297
0.000164683
0.000177369
0.000190688
0.000206389
0.000220364
0.00021766
0.000226566
0.000693065
0.00081343
0.000300085
0.000292344
0.000281439
0.000266058
0.000245544
0.000239209
0.000255847
0.000257907
0.000243932
0.000151129
0.000379931
0.000505953
0.000623354
0.000729412
0.000804955
0.000802723
0.000738326
0.000603505
0.000713828
0.000752658
0.000583563
0.000521983
0.000471677
0.000426986
0.000385733
0.000347638
0.000327134
0.000308984
0.000227941
0.000165255
0.000366926
0.00053869
0.00070891
0.000878913
0.000992164
0.00097067
0.000941525
0.000860749
0.000928122
0.000911007
0.00073366
0.000614945
0.000539962
0.000470996
0.000423645
0.000389189
0.000365365
0.000338495
0.000248519
0.000239756
0.000301325
0.00045262
0.000661729
0.000886279
0.0010404
0.00104235
0.00107665
0.00108753
0.00114201
0.00104736
0.000819953
0.000684321
0.000591943
0.000508253
0.000456298
0.000425243
0.000403727
0.00039454
0.000305955
0.000330183
0.000327191
0.000386742
0.000591361
0.000872591
0.00106702
0.00112285
0.00122972
0.00129743
0.00134659
0.00115697
0.000873489
0.000750963
0.000656444
0.000565734
0.000509954
0.000489108
0.000494896
0.000536128
0.000337911
0.000383961
0.000435491
0.000431126
0.000606639
0.000913416
0.00111305
0.00119352
0.0013805
0.0014877
0.00153368
0.00125096
0.000919859
0.000831852
0.000750618
0.000663122
0.000601614
0.000591406
0.00065758
0.000845476
0.000359989
0.000424983
0.000727005
0.000632072
0.000785176
0.00104036
0.00118661
0.00126719
0.00149802
0.00164337
0.00168934
0.00133833
0.000988572
0.000952192
0.000898377
0.00082599
0.000761323
0.000735447
0.000807809
0.0010172
0.000375595
0.000460159
0.000886207
0.00091927
0.00103307
0.00115174
0.00121624
0.00133429
0.00157543
0.001755
0.00179676
0.00143007
0.00111796
0.00108795
0.00105372
0.00100699
0.000961395
0.000932305
0.000949236
0.000902822
0.000386023
0.000495032
0.000869338
0.00116285
0.00127131
0.0013222
0.00135229
0.00143666
0.00161115
0.0017739
0.00180263
0.00149012
0.00124911
0.00125706
0.00126638
0.00123507
0.00117447
0.00108712
0.000978904
0.000707744
0.000400599
0.000529369
0.000578305
0.000617278
0.000653446
0.000689873
0.000729694
0.00077679
0.000830743
0.000879225
0.000883899
0.000807299
0.000734845
0.000682639
0.000640197
0.000602279
0.000566849
0.000532447
0.000499146
0.000465147
0.00042472
0.000127051
0.000146869
0.000159876
0.000170209
0.00017893
0.000185821
0.000189611
0.000193777
0.000209924
0.000271835
0.000300085
0.00030881
0.00031054
0.000308277
0.000302978
0.000294679
0.000283413
0.00026819
0.000252345
0.000231355
0.000145032
0.000389268
0.000524342
0.000625868
0.000681621
0.00068116
0.000633507
0.000552229
0.000492413
0.000572109
0.000583563
0.000600375
0.000594183
0.000559212
0.000513271
0.000455188
0.000390024
0.00033912
0.000290295
0.000222836
0.000159675
0.000373714
0.000565642
0.000721757
0.0008164
0.000832652
0.000786365
0.000700674
0.000675113
0.000794582
0.00073366
0.000704387
0.000692601
0.000630276
0.000543282
0.000455079
0.000390116
0.000348137
0.000318768
0.000254242
0.000244964
0.00029908
0.000455327
0.000665977
0.00083105
0.000889072
0.000852208
0.000769133
0.000830296
0.000935437
0.000819953
0.000769322
0.00075146
0.00067357
0.000560296
0.000466391
0.000409457
0.000381257
0.000383025
0.000309297
0.000335279
0.00033282
0.000382817
0.000575379
0.00081032
0.000925131
0.00090996
0.000857531
0.000974162
0.00103448
0.000873489
0.000821868
0.000801599
0.000723099
0.000604852
0.000513182
0.000468965
0.000475394
0.000542403
0.000340265
0.000387104
0.000452682
0.000434442
0.000583203
0.000841666
0.000989397
0.000986861
0.000975931
0.00110399
0.00111308
0.000919859
0.00088717
0.000871852
0.000803
0.00069459
0.000604541
0.00057346
0.00064208
0.000870335
0.000362066
0.000426657
0.000769189
0.000648264
0.000768407
0.000978779
0.0010948
0.00107132
0.00109848
0.00120658
0.0011781
0.000988572
0.000998318
0.00100096
0.000949201
0.000856629
0.000766823
0.000726736
0.000802697
0.0010363
0.000377561
0.000460408
0.000900636
0.00095081
0.00104311
0.00113661
0.00117622
0.00117148
0.00120379
0.0012754
0.0012323
0.00111796
0.00115529
0.00115965
0.0011311
0.00106642
0.000989024
0.000942982
0.000962631
0.0009304
0.000386672
0.000493059
0.00087714
0.0012027
0.00130898
0.00134828
0.00133293
0.00130866
0.00131787
0.00134565
0.00130562
0.00124911
0.00132388
0.0013644
0.0013436
0.00128301
0.00119935
0.0011033
0.00100192
0.000732692
0.000399632
0.000521934
0.000567867
0.000604175
0.00063603
0.000665931
0.000695529
0.000727161
0.000760602
0.000789398
0.000789898
0.000734845
0.000691849
0.000654168
0.000618364
0.000584235
0.000551624
0.000519934
0.000489352
0.000457782
0.000419866
0.000128099
0.000145891
0.000156764
0.000164208
0.000168801
0.00017131
0.000174711
0.00018249
0.000200566
0.000254135
0.000292344
0.00031054
0.00031894
0.000322184
0.000322135
0.000319208
0.000313109
0.000303186
0.000288998
0.000270705
0.000143797
0.000307443
0.00039555
0.000460894
0.000500022
0.000510643
0.000490585
0.000452647
0.000432503
0.00046273
0.000521983
0.000594183
0.000639929
0.000646863
0.000627447
0.000586829
0.000520579
0.000419134
0.000319557
0.000232032
0.000164967
0.000306232
0.000426612
0.000519012
0.000574145
0.000592176
0.000585976
0.000571376
0.000556486
0.000572723
0.000614945
0.000692601
0.000749312
0.000740716
0.000676881
0.000576246
0.000467054
0.000382215
0.000330544
0.000272476
0.000257757
0.000287234
0.000384341
0.000507147
0.000592532
0.000634033
0.000644949
0.000640961
0.000639088
0.000655597
0.000684321
0.00075146
0.000812106
0.000795615
0.000699693
0.000561534
0.00045847
0.000403746
0.000399409
0.000316545
0.000341109
0.000341048
0.000359588
0.000473951
0.000600946
0.000683642
0.00072035
0.000720281
0.000720504
0.000727982
0.000750963
0.000801599
0.000857592
0.000839647
0.000734087
0.000591321
0.000508072
0.000505005
0.000594607
0.000345256
0.000390336
0.000475258