/*--------------------------------*- C++ -*----------------------------------*\
  =========                 |
  \\      /  F ield         | OpenFOAM: The Open Source CFD Toolbox
   \\    /   O peration     | Website:  https://openfoam.org
    \\  /    A nd           | Version:  8
     \\/     M anipulation  |
\*---------------------------------------------------------------------------*/
FoamFile
{
    version     2.0;
    format      ascii;
    class       volScalarField;
    location    "1000";
    object      epsilon;
}
// * * * * * * * * * * * * * * * * * * * * * * * * * * * * * * * * * * * * * //

dimensions      [0 2 -3 0 0 0 0];

internalField   nonuniform List<scalar> 
4000
(
5.22269e-07
4.99294e-07
4.61247e-07
4.12888e-07
3.6151e-07
3.03857e-07
2.14632e-07
8.35622e-08
3.12907e-08
2.27174e-08
1.97435e-08
1.92076e-08
1.96108e-08
2.24741e-08
1.11492e-07
2.25203e-07
2.81775e-07
3.16851e-07
3.53388e-07
3.88527e-07
5.91604e-07
5.66842e-07
5.01387e-07
4.10615e-07
3.06624e-07
2.32997e-07
1.69854e-07
9.73274e-08
6.0533e-08
4.03931e-08
3.18949e-08
2.81472e-08
2.73692e-08
4.35707e-08
9.36068e-08
1.76084e-07
2.33967e-07
3.065e-07
3.88423e-07
4.46117e-07
6.34474e-07
6.2586e-07
5.59356e-07
4.56954e-07
3.3008e-07
2.13327e-07
1.48451e-07
1.05733e-07
7.71845e-08
5.50788e-08
4.18325e-08
3.80019e-08
4.18525e-08
5.53026e-08
8.14537e-08
1.34187e-07
2.24014e-07
3.30445e-07
4.31551e-07
4.80784e-07
6.59745e-07
6.73857e-07
6.2723e-07
5.48137e-07
4.56316e-07
3.68181e-07
2.95414e-07
2.3387e-07
1.77453e-07
1.31684e-07
1.27862e-07
1.36538e-07
1.5818e-07
1.91597e-07
2.26807e-07
2.74525e-07
3.35511e-07
4.0898e-07
4.76382e-07
5.00305e-07
6.79107e-07
7.19357e-07
7.07983e-07
6.676e-07
6.14136e-07
5.54687e-07
4.94697e-07
4.35913e-07
3.75332e-07
3.2446e-07
3.32663e-07
3.4835e-07
3.6686e-07
3.87252e-07
4.09251e-07
4.35248e-07
4.6704e-07
5.01799e-07
5.26982e-07
5.16146e-07
6.97801e-07
7.6665e-07
7.9196e-07
7.8917e-07
7.70776e-07
7.38565e-07
6.93976e-07
6.39099e-07
5.77473e-07
5.17345e-07
5.21717e-07
5.34768e-07
5.48428e-07
5.60605e-07
5.70632e-07
5.78214e-07
5.82674e-07
5.83174e-07
5.71427e-07
5.28043e-07
7.17854e-07
8.17724e-07
8.80394e-07
9.14084e-07
9.27552e-07
9.20147e-07
8.91211e-07
8.42782e-07
7.79555e-07
7.0898e-07
7.06868e-07
7.15443e-07
7.22461e-07
7.24241e-07
7.18757e-07
7.05474e-07
6.83917e-07
6.54434e-07
6.10565e-07
5.37243e-07
7.41972e-07
8.78912e-07
9.81961e-07
1.05503e-06
1.10255e-06
1.12074e-06
1.10643e-06
1.06195e-06
9.94963e-07
9.08853e-07
8.97261e-07
8.98921e-07
8.96345e-07
8.84695e-07
8.62139e-07
8.27823e-07
7.81094e-07
7.23354e-07
6.49203e-07
5.46524e-07
7.7446e-07
9.53672e-07
1.10339e-06
1.21835e-06
1.30227e-06
1.35035e-06
1.35666e-06
1.32367e-06
1.25714e-06
1.14661e-06
1.11716e-06
1.10388e-06
1.08517e-06
1.05541e-06
1.0128e-06
9.56676e-07
8.85945e-07
8.01591e-07
6.96499e-07
5.61518e-07
8.18596e-07
1.02069e-06
1.19515e-06
1.32783e-06
1.42915e-06
1.50159e-06
1.54495e-06
1.55696e-06
1.53387e-06
1.4363e-06
1.3647e-06
1.30808e-06
1.2504e-06
1.18872e-06
1.12179e-06
1.04801e-06
9.64548e-07
8.66518e-07
7.41682e-07
5.85662e-07
4.99294e-07
5.19028e-07
4.95503e-07
4.46704e-07
3.89095e-07
3.24422e-07
2.35342e-07
1.19674e-07
4.79724e-08
3.5774e-08
3.14819e-08
2.93764e-08
2.85294e-08
4.49735e-08
1.52605e-07
2.58383e-07
3.21299e-07
3.67356e-07
4.07469e-07
4.05701e-07
5.66842e-07
5.22472e-07
4.5758e-07
3.74338e-07
2.86221e-07
2.33056e-07
1.7819e-07
1.10731e-07
7.08777e-08
4.97656e-08
3.92669e-08
3.70335e-08
4.51593e-08
6.63821e-08
1.26192e-07
1.98461e-07
2.4213e-07
3.17198e-07
4.20946e-07
4.69432e-07
6.2586e-07
5.5814e-07
5.05972e-07
4.2506e-07
3.1518e-07
2.17791e-07
1.59063e-07
1.13268e-07
8.23566e-08
6.26102e-08
5.06599e-08
4.62075e-08
5.12674e-08
6.81424e-08
1.04587e-07
1.55304e-07
2.27407e-07
3.46454e-07
4.66024e-07
5.09807e-07
6.73857e-07
6.02678e-07
5.73705e-07
5.11049e-07
4.07217e-07
2.89916e-07
2.1752e-07
1.62167e-07
1.18119e-07
8.7481e-08
7.86251e-08
8.05907e-08
9.17592e-08
1.15779e-07
1.53709e-07
2.10681e-07
2.95468e-07
4.10459e-07
5.09975e-07
5.34371e-07
7.19357e-07
6.51143e-07
6.37222e-07
5.93741e-07
5.24047e-07
4.28353e-07
3.26498e-07
2.57034e-07
2.03404e-07
1.70693e-07
1.71914e-07
1.81631e-07
1.97837e-07
2.22936e-07
2.58717e-07
3.19683e-07
3.99893e-07
4.76563e-07
5.31478e-07
5.53617e-07
7.6665e-07
6.94067e-07
6.82587e-07
6.50315e-07
6.21303e-07
5.68759e-07
4.84212e-07
3.86997e-07
3.13474e-07
2.7497e-07
2.81671e-07
2.96968e-07
3.18067e-07
3.48644e-07
3.94994e-07
4.42849e-07
4.77623e-07
5.08909e-07
5.34287e-07
5.69964e-07
8.17724e-07
7.4304e-07
7.29704e-07
7.00834e-07
6.85217e-07
6.58949e-07
6.04937e-07
5.30323e-07
4.51239e-07
4.00915e-07
4.14732e-07
4.41318e-07
4.69564e-07
4.93857e-07
5.07946e-07
5.14037e-07
5.11994e-07
5.19653e-07
5.37821e-07
5.87346e-07
8.78912e-07
8.33883e-07
8.37281e-07
8.22487e-07
8.16136e-07
8.03434e-07
7.62954e-07
6.93864e-07
6.14284e-07
5.56665e-07
5.65914e-07
5.89835e-07
6.05676e-07
6.10514e-07
6.04619e-07
5.90055e-07
5.67538e-07
5.62637e-07
5.75711e-07
6.11826e-07
9.53672e-07
1.02697e-06
1.11638e-06
1.17614e-06
1.22396e-06
1.24591e-06
1.21346e-06
1.13351e-06
1.01281e-06
8.78218e-07
8.8219e-07
9.06565e-07
9.14763e-07
9.01557e-07
8.69278e-07
8.23726e-07
7.70932e-07
7.29411e-07
6.91305e-07
6.45099e-07
1.02069e-06
1.28217e-06
1.51292e-06
1.6977e-06
1.84716e-06
1.96108e-06
2.03527e-06
2.06288e-06
2.033e-06
1.90169e-06
1.78079e-06
1.68602e-06
1.5902e-06
1.49046e-06
1.38646e-06
1.2769e-06
1.15872e-06
1.02699e-06
8.67493e-07
6.75445e-07
4.61247e-07
4.95503e-07
4.83145e-07
4.41026e-07
3.85868e-07
3.18399e-07
2.2435e-07
1.10609e-07
5.29427e-08
4.56572e-08
4.13453e-08
3.77599e-08
3.5318e-08
5.72443e-08
1.7102e-07
2.78939e-07
3.45981e-07
3.96804e-07
4.33405e-07
4.10441e-07
5.01387e-07
4.5758e-07
4.02249e-07
3.35501e-07
2.73275e-07
2.32427e-07
1.7692e-07
1.12269e-07
7.64193e-08
5.72359e-08
4.73269e-08
4.65794e-08
5.79635e-08
8.15759e-08
1.43913e-07
2.13252e-07
2.55454e-07
3.31037e-07
4.34858e-07
4.73447e-07
5.59356e-07
5.05972e-07
4.45605e-07
3.74496e-07
2.87998e-07
2.14712e-07
1.60013e-07
1.16589e-07
8.87278e-08
7.11403e-08
5.98629e-08
5.57082e-08
6.22714e-08
7.97184e-08
1.17757e-07
1.68818e-07
2.37543e-07
3.57579e-07
4.81946e-07
5.16025e-07
6.2723e-07
5.73705e-07
5.07639e-07
4.33183e-07
3.35171e-07
2.38183e-07
1.76299e-07
1.33653e-07
1.00787e-07
7.70798e-08
6.58053e-08
6.32271e-08
6.90362e-08
8.83981e-08
1.20594e-07
1.68371e-07
2.55921e-07
4.05495e-07
5.28772e-07
5.43845e-07
7.07983e-07
6.37222e-07
5.5935e-07
4.78138e-07
3.88358e-07
2.9074e-07
2.15495e-07
1.64724e-07
1.26398e-07
1.02766e-07
9.66599e-08
9.79688e-08
1.05997e-07
1.24634e-07
1.55e-07
2.06418e-07
2.97322e-07
4.36007e-07
5.54458e-07
5.66904e-07
7.9196e-07
6.82587e-07
5.92174e-07
4.97481e-07
4.12459e-07
3.33903e-07
2.65091e-07
2.06467e-07
1.62872e-07
1.40304e-07
1.38753e-07
1.4362e-07
1.54331e-07
1.74234e-07
2.0666e-07
2.53902e-07
3.23705e-07
4.3014e-07
5.50161e-07
5.91365e-07
8.80394e-07
7.29704e-07
6.35185e-07
5.20571e-07
4.12979e-07
3.48264e-07
2.94958e-07
2.46215e-07
2.07319e-07
1.86165e-07
1.8655e-07
1.93436e-07
2.04054e-07
2.1938e-07
2.40577e-07
2.70033e-07
3.18991e-07
4.20202e-07
5.40445e-07
6.24498e-07
9.81961e-07
8.37281e-07
7.75207e-07
6.87819e-07
6.02057e-07
5.20179e-07
4.64146e-07
3.98322e-07
3.28785e-07
2.82104e-07
2.85584e-07
3.06207e-07
3.23028e-07
3.32742e-07
3.37451e-07
3.43096e-07
3.93646e-07
4.82786e-07
5.78993e-07
6.68219e-07
1.10339e-06
1.11638e-06
1.24497e-06
1.36351e-06
1.44784e-06
1.49279e-06
1.42494e-06
1.29196e-06
1.11589e-06
9.45726e-07
9.29273e-07
9.74719e-07
1.00817e-06
1.00821e-06
9.76552e-07
9.24099e-07
8.47447e-07
7.80936e-07
7.35156e-07
7.23412e-07
1.19515e-06
1.51292e-06
1.7949e-06
2.02947e-06
2.2262e-06
2.38161e-06
2.48906e-06
2.53918e-06
2.50874e-06
2.34181e-06
2.16711e-06
2.03173e-06
1.89671e-06
1.75984e-06
1.62183e-06
1.48066e-06
1.33206e-06
1.17168e-06
9.84422e-07
7.64083e-07
4.12888e-07
4.46704e-07
4.41026e-07
4.06578e-07
3.55925e-07
2.83376e-07
1.79688e-07
8.3078e-08
5.73451e-08
5.52698e-08
5.16517e-08
4.55371e-08
4.06042e-08
5.79149e-08
1.68083e-07
2.81724e-07
3.51759e-07
4.02233e-07
4.31767e-07
3.98277e-07
4.10615e-07
3.74338e-07
3.35501e-07
2.89821e-07
2.5583e-07
2.16833e-07
1.55924e-07
1.02979e-07
7.4916e-08
6.12437e-08
5.47564e-08
5.38293e-08
6.40765e-08
8.7971e-08
1.47492e-07
2.17071e-07
2.59312e-07
3.28248e-07
4.19516e-07
4.51593e-07
4.56954e-07
4.2506e-07
3.74496e-07
3.22208e-07
2.59446e-07
2.00739e-07
1.50775e-07
1.14349e-07
9.23088e-08
7.8272e-08
6.91159e-08
6.36616e-08
6.92528e-08
8.74906e-08
1.25611e-07
1.78659e-07
2.46897e-07
3.54655e-07
4.67993e-07
4.94398e-07
5.48137e-07
5.11049e-07
4.33183e-07
3.61323e-07
2.81361e-07
2.08897e-07
1.58733e-07
1.24647e-07
9.90228e-08
8.10227e-08
7.06768e-08
6.46098e-08
6.69022e-08
8.34638e-08
1.13656e-07
1.60649e-07
2.48691e-07
3.9115e-07
5.17296e-07
5.28297e-07
6.676e-07
5.93741e-07
4.78138e-07
3.88939e-07
3.05995e-07
2.29457e-07
1.74154e-07
1.35178e-07
1.05224e-07
8.67119e-08
7.80958e-08
7.33104e-08
7.48462e-08
8.89388e-08
1.15982e-07
1.60948e-07
2.5407e-07
4.07664e-07
5.48743e-07
5.6121e-07
7.8917e-07
6.50315e-07
4.97481e-07
3.90598e-07
3.09417e-07
2.42863e-07
1.90692e-07
1.48778e-07
1.17399e-07
1.00902e-07
9.43305e-08
9.11268e-08
9.38413e-08
1.06406e-07
1.30885e-07
1.70699e-07
2.44658e-07
3.89802e-07
5.50731e-07
5.98766e-07
9.14084e-07
7.00834e-07
5.20571e-07
3.88237e-07
3.13589e-07
2.63943e-07
2.23266e-07
1.85843e-07
1.56072e-07
1.39078e-07
1.31671e-07
1.2894e-07
1.31522e-07
1.39915e-07
1.55555e-07
1.81677e-07
2.32791e-07
3.64878e-07
5.378e-07
6.46536e-07
1.05503e-06
8.22487e-07
6.87819e-07
5.72788e-07
5.44719e-07
5.33488e-07
5.04706e-07
4.46578e-07
3.77192e-07
3.18673e-07
3.03713e-07
3.14179e-07
3.26632e-07
3.30193e-07
3.26844e-07
3.21742e-07
3.3775e-07
4.46293e-07
5.73571e-07
7.07038e-07
1.21835e-06
1.17614e-06
1.36351e-06
1.57294e-06
1.69655e-06
1.77284e-06
1.73944e-06
1.58982e-06
1.38576e-06
1.18414e-06
1.12985e-06
1.17792e-06
1.22651e-06
1.22705e-06
1.17187e-06
1.06889e-06
9.68322e-07
8.58428e-07
7.66422e-07
7.81566e-07
1.32783e-06
1.6977e-06
2.02947e-06
2.31657e-06
2.5714e-06
2.77917e-06
2.93308e-06
3.02248e-06
3.02142e-06
2.83953e-06
2.57215e-06
2.37164e-06
2.18677e-06
2.00907e-06
1.83498e-06
1.65952e-06
1.4771e-06
1.28798e-06
1.07383e-06
8.28141e-07
3.6151e-07
3.89095e-07
3.85868e-07
3.55925e-07
3.01761e-07
2.17707e-07
1.16812e-07
6.65854e-08
6.37108e-08
6.69549e-08
6.41623e-08
5.29528e-08
4.42524e-08
5.29226e-08
1.46715e-07
2.66811e-07
3.40239e-07
3.8708e-07
4.08965e-07
3.70735e-07
3.06624e-07
2.86221e-07
2.73275e-07
2.5583e-07
2.28648e-07
1.80851e-07
1.24948e-07
9.00931e-08
7.24441e-08
6.84298e-08
6.62799e-08
5.97647e-08
6.41772e-08
8.72626e-08
1.39353e-07
2.09343e-07
2.52011e-07
3.08361e-07
3.82563e-07
4.04675e-07
3.3008e-07
3.1518e-07
2.87998e-07
2.59446e-07
2.18139e-07
1.72984e-07
1.34001e-07
1.08589e-07
9.40699e-08
8.92805e-08
8.40894e-08
7.00725e-08
7.042e-08
8.97418e-08
1.26828e-07
1.80061e-07
2.44999e-07
3.36656e-07
4.33606e-07
4.45024e-07
4.56316e-07
4.07217e-07
3.35171e-07
2.81361e-07
2.2806e-07
1.79702e-07
1.43851e-07
1.19046e-07
1.03268e-07
9.86944e-08
9.04426e-08
7.27723e-08
6.79218e-08
8.35346e-08
1.13978e-07
1.61523e-07
2.43896e-07
3.67822e-07
4.89489e-07
4.8741e-07
6.14136e-07
5.24047e-07
3.88358e-07
3.05995e-07
2.43152e-07
1.91371e-07
1.52897e-07
1.24525e-07
1.07373e-07
1.05543e-07
9.59311e-08
7.60516e-08
6.77912e-08
7.88137e-08
1.04374e-07
1.47362e-07
2.34026e-07
3.7648e-07
5.2681e-07
5.35449e-07
7.70776e-07
6.21303e-07
4.12459e-07
3.09417e-07
2.46287e-07
1.99092e-07
1.61889e-07
1.33038e-07
1.19665e-07
1.2388e-07
1.10853e-07
8.76128e-08
7.80138e-08
8.44599e-08
1.03857e-07
1.37662e-07
2.06956e-07
3.53425e-07
5.32764e-07
5.87916e-07
9.27552e-07
6.85217e-07
4.12979e-07
3.13589e-07
2.69735e-07
2.39981e-07
2.1287e-07
1.89033e-07
1.81823e-07
1.8662e-07
1.61527e-07
1.32524e-07
1.22786e-07
1.24611e-07
1.33865e-07
1.52096e-07
1.95572e-07
3.19542e-07
5.17608e-07
6.4932e-07
1.10255e-06
8.16136e-07
6.02057e-07
5.44719e-07
5.78881e-07
6.00352e-07
5.79143e-07
5.23452e-07
4.78798e-07
4.31799e-07
3.67704e-07
3.43327e-07
3.55165e-07
3.65508e-07
3.61098e-07
3.4462e-07
3.41126e-07
4.15977e-07
5.55526e-07
7.22266e-07
1.30227e-06
1.22396e-06
1.44784e-06
1.69655e-06
1.92743e-06
2.0433e-06
1.98337e-06
1.79258e-06
1.58552e-06
1.37518e-06
1.24708e-06
1.28094e-06
1.36363e-06
1.40166e-06
1.36055e-06
1.23608e-06
1.07195e-06
9.12017e-07
7.79261e-07
8.13007e-07
1.42915e-06
1.84716e-06
2.2262e-06
2.5714e-06
2.88654e-06
3.15479e-06
3.37696e-06
3.54409e-06
3.61833e-06
3.4378e-06
3.02815e-06
2.7236e-06
2.46629e-06
2.23694e-06
2.02316e-06
1.814e-06
1.59894e-06
1.37705e-06
1.13725e-06
8.69562e-07
3.03857e-07
3.24422e-07
3.18399e-07
2.83376e-07
2.17707e-07
1.31017e-07
7.43468e-08
6.63326e-08
7.38967e-08
8.48549e-08
8.12576e-08
5.94047e-08
4.64187e-08
4.83435e-08
1.13807e-07
2.35703e-07
3.14948e-07
3.57344e-07
3.72565e-07
3.33446e-07
2.32997e-07
2.33056e-07
2.32427e-07
2.16833e-07
1.80851e-07
1.33584e-07
9.86462e-08
7.78215e-08
7.50452e-08
8.8224e-08
8.77009e-08
6.42132e-08
6.10984e-08
8.20022e-08
1.2396e-07
1.90131e-07
2.34624e-07
2.76414e-07
3.33857e-07
3.43662e-07
2.13327e-07
2.17791e-07
2.14712e-07
2.00739e-07
1.72984e-07
1.41498e-07
1.17007e-07
1.02123e-07
1.02681e-07
1.24541e-07
1.12962e-07
7.41938e-08
6.79967e-08
8.68665e-08
1.2138e-07
1.71265e-07
2.30472e-07
3.06566e-07
3.86392e-07
3.83233e-07
3.68181e-07
2.89916e-07
2.38183e-07
2.08897e-07
1.79702e-07
1.51484e-07
1.29293e-07
1.16334e-07
1.27052e-07
1.64665e-07
1.35896e-07
8.07182e-08
6.7678e-08
8.24128e-08
1.12794e-07
1.58658e-07
2.31699e-07
3.38664e-07
4.52445e-07
4.39305e-07
5.54687e-07
4.28353e-07
2.9074e-07
2.29457e-07
1.91371e-07
1.60866e-07
1.36858e-07
1.24603e-07
1.50303e-07
2.11417e-07
1.62106e-07
8.91424e-08
6.81091e-08
7.62801e-08
1.01128e-07
1.42716e-07
2.19729e-07
3.45449e-07
4.98446e-07
5.0286e-07
7.38565e-07
5.68759e-07
3.33903e-07
2.42863e-07
1.99092e-07
1.6935e-07
1.46833e-07
1.42126e-07
1.95649e-07
2.84101e-07
2.01953e-07
1.08587e-07
7.92538e-08
7.98491e-08
9.58623e-08
1.26074e-07
1.87674e-07
3.1847e-07
5.09322e-07
5.6517e-07
9.20147e-07
6.58949e-07
3.48264e-07
2.63943e-07
2.39981e-07
2.27176e-07
2.17375e-07
2.31361e-07
3.26013e-07
4.24419e-07
2.89286e-07
1.68005e-07
1.31271e-07
1.26481e-07
1.3137e-07
1.43125e-07
1.77634e-07
2.78214e-07
4.90823e-07
6.34499e-07
1.12074e-06
8.03434e-07
5.20179e-07
5.33488e-07
6.00352e-07
6.3431e-07
6.23852e-07
6.30832e-07
7.52716e-07
7.80483e-07
5.4347e-07
3.80414e-07
3.60046e-07
3.79768e-07
3.82621e-07
3.61405e-07
3.42721e-07
3.81984e-07
5.29442e-07
7.13664e-07
1.35035e-06
1.24591e-06
1.49279e-06
1.77284e-06
2.0433e-06
2.132e-06
2.0453e-06
1.90204e-06
1.83383e-06
1.67955e-06
1.37217e-06
1.28823e-06
1.36393e-06
1.44216e-06
1.43605e-06
1.31905e-06
1.12248e-06
9.26837e-07
7.67926e-07
8.15371e-07
1.50159e-06
1.96108e-06
2.38161e-06
2.77917e-06
3.15479e-06
3.50165e-06
3.83189e-06
4.14184e-06
4.37348e-06
4.2213e-06
3.58463e-06
3.10475e-06
2.73511e-06
2.43451e-06
2.17224e-06
1.92654e-06
1.68109e-06
1.43188e-06
1.17183e-06
8.88415e-07
2.14632e-07
2.35342e-07
2.2435e-07
1.79688e-07
1.16812e-07
7.43468e-08
6.66588e-08
7.29489e-08
9.02726e-08
1.11682e-07
9.86333e-08
6.27858e-08
4.94357e-08
4.84483e-08
8.23909e-08
1.9062e-07
2.79603e-07
3.20267e-07
3.28844e-07
2.91076e-07
1.69854e-07
1.7819e-07
1.7692e-07
1.55924e-07
1.24948e-07
9.86462e-08
7.90647e-08
7.3882e-08
9.53416e-08
1.43803e-07
1.23789e-07
7.22706e-08
5.9085e-08
7.52198e-08
1.07912e-07
1.62465e-07
2.09831e-07
2.39578e-07
2.77681e-07
2.74167e-07
1.48451e-07
1.59063e-07
1.60013e-07
1.50775e-07
1.34001e-07
1.17007e-07
1.03896e-07
1.03738e-07
1.59042e-07
2.75274e-07
1.83172e-07
8.69504e-08
6.70301e-08
8.17252e-08
1.1166e-07
1.54329e-07
2.0555e-07
2.65398e-07
3.26779e-07
3.12291e-07
2.95414e-07
2.1752e-07
1.76299e-07
1.58733e-07
1.43851e-07
1.29293e-07
1.19556e-07
1.37205e-07
2.67153e-07
4.70448e-07
2.71984e-07
1.06334e-07
7.00025e-08
8.01229e-08
1.08123e-07
1.49534e-07
2.11501e-07
3.02014e-07
4.05001e-07
3.89721e-07
4.94697e-07
3.26498e-07
2.15495e-07
1.74154e-07
1.52897e-07
1.36858e-07
1.29758e-07
1.73996e-07
4.21226e-07
7.44499e-07
3.98249e-07
1.37663e-07
7.54378e-08
7.64415e-08
9.90827e-08
1.38103e-07
2.05643e-07
3.17029e-07
4.68031e-07
4.65729e-07
6.93976e-07
4.84212e-07
2.65091e-07
1.90692e-07
1.61889e-07
1.46833e-07
1.49892e-07
2.44832e-07
6.65176e-07
1.09522e-06
5.86493e-07
1.91418e-07
9.39062e-08
8.21691e-08
9.44543e-08
1.22029e-07
1.77493e-07
2.92734e-07
4.9406e-07
5.34713e-07
8.91211e-07
6.04937e-07
2.94958e-07
2.23266e-07
2.1287e-07
2.17375e-07
2.51159e-07
4.39285e-07
1.09995e-06
1.57161e-06
8.48514e-07
3.02584e-07
1.53735e-07
1.31795e-07
1.32775e-07
1.40295e-07
1.67584e-07
2.54113e-07
4.72897e-07
6.0603e-07
1.10643e-06
7.62954e-07
4.64146e-07
5.04706e-07
5.79143e-07
6.23852e-07
6.90978e-07
9.90811e-07
1.63108e-06
1.83873e-06
1.08855e-06
4.94453e-07
3.49664e-07
3.59512e-07
3.74879e-07
3.55954e-07
3.27765e-07
3.35491e-07
4.95379e-07
6.83822e-07
1.35666e-06
1.21346e-06
1.42494e-06
1.73944e-06
1.98337e-06
2.0453e-06
2.02797e-06
2.13207e-06
2.45236e-06
2.42478e-06
1.73278e-06
1.3168e-06
1.28726e-06
1.36875e-06
1.39379e-06
1.29716e-06
1.0906e-06
8.77739e-07
7.21488e-07
7.88473e-07
1.54495e-06
2.03527e-06
2.48906e-06
2.93308e-06
3.37696e-06
3.83189e-06
4.3309e-06
4.88709e-06
5.40992e-06
5.31076e-06
4.3266e-06
3.55026e-06
3.00567e-06
2.60465e-06
2.28093e-06
1.99372e-06
1.71835e-06
1.44813e-06
1.17546e-06
8.85126e-07
8.35622e-08
1.19674e-07
1.10609e-07
8.3078e-08
6.65854e-08
6.63326e-08
7.29489e-08
8.76728e-08
1.15889e-07
1.31694e-07
9.36355e-08
6.70325e-08
5.70195e-08
5.44486e-08
6.53236e-08
1.38714e-07
2.36373e-07
2.81137e-07
2.85234e-07
2.49892e-07
9.73274e-08
1.10731e-07
1.12269e-07
1.02979e-07
9.00931e-08
7.78215e-08
7.3882e-08
9.22986e-08
1.77789e-07
3.82052e-07
2.31031e-07
9.51082e-08
6.4767e-08
7.10876e-08
9.567e-08
1.33803e-07
1.80493e-07
2.06283e-07
2.20595e-07
2.02709e-07
1.05733e-07
1.13268e-07
1.16589e-07
1.14349e-07
1.08589e-07
1.02123e-07
1.03738e-07
1.65072e-07
4.98994e-07
1.08215e-06
5.3549e-07
1.46069e-07
7.5712e-08
7.88697e-08
1.01229e-07
1.33916e-07
1.74539e-07
2.17731e-07
2.53574e-07
2.42896e-07
2.3387e-07
1.62167e-07
1.33653e-07
1.24647e-07
1.19046e-07
1.16334e-07
1.37205e-07
3.06486e-07
1.08399e-06
2.05371e-06
9.41855e-07
2.28249e-07
8.60857e-08
7.99345e-08
1.01292e-07
1.35177e-07
1.83347e-07
2.50363e-07
3.34198e-07
3.39163e-07
4.35913e-07
2.57034e-07
1.64724e-07
1.35178e-07
1.24525e-07
1.24603e-07
1.73996e-07
5.23433e-07
1.94966e-06
3.12579e-06
1.40521e-06
3.55998e-07
1.04681e-07
8.06474e-08
9.6793e-08
1.30542e-07
1.87099e-07
2.80488e-07
4.26697e-07
4.26154e-07
6.39099e-07
3.86997e-07
2.06467e-07
1.48778e-07
1.33038e-07
1.42126e-07
2.44832e-07
8.76452e-07
3.01549e-06
3.92975e-06
1.8404e-06
5.20163e-07
1.40881e-07
9.08616e-08
9.56458e-08
1.19671e-07
1.69638e-07
2.73214e-07
4.80213e-07
4.99755e-07
8.42782e-07
5.30323e-07
2.46215e-07
1.85843e-07
1.89033e-07
2.31361e-07
4.39285e-07
1.46071e-06
3.72394e-06
4.17266e-06
2.13417e-06
6.60925e-07
2.06339e-07
1.37918e-07
1.3204e-07
1.375e-07
1.60186e-07
2.38313e-07
4.62857e-07
5.68747e-07
1.06195e-06
6.93864e-07
3.98322e-07
4.46578e-07
5.23452e-07
6.30832e-07
9.90811e-07
2.03284e-06
3.70614e-06
3.94446e-06
2.26714e-06
7.69284e-07
3.42803e-07
3.14783e-07
3.32276e-07
3.25066e-07
2.97109e-07
2.97908e-07
4.54123e-07
6.38781e-07
1.32367e-06
1.13351e-06
1.29196e-06
1.58982e-06
1.79258e-06
1.90204e-06
2.13207e-06
2.77281e-06
3.81566e-06
3.87183e-06
2.56251e-06
1.48524e-06
1.21584e-06
1.23999e-06
1.26587e-06
1.1837e-06
9.83402e-07
7.50702e-07
6.39399e-07
7.37223e-07
1.55696e-06
2.06288e-06
2.53918e-06
3.02248e-06
3.54409e-06
4.14184e-06
4.88709e-06
5.82592e-06
6.79166e-06
6.67291e-06
5.29952e-06
4.0681e-06
3.27153e-06
2.73957e-06
2.34253e-06
2.01025e-06
1.70655e-06
1.42231e-06
1.1465e-06
8.59828e-07
3.12907e-08
4.79724e-08
5.29427e-08
5.73451e-08
6.37108e-08
7.38967e-08
9.02726e-08
1.15889e-07
1.38789e-07
1.58404e-07
1.09127e-07
8.9102e-08
7.85532e-08
6.83272e-08
6.66037e-08
9.84868e-08
1.86099e-07
2.40093e-07
2.44892e-07
2.14682e-07
6.0533e-08
7.08777e-08
7.64193e-08
7.4916e-08
7.24441e-08
7.50452e-08
9.53416e-08
1.77789e-07
6.19491e-07
1.44448e-06
5.49127e-07
1.8899e-07
1.01962e-07
8.29468e-08
9.00848e-08
1.12834e-07
1.49317e-07
1.77167e-07
1.83499e-07
1.48001e-07
7.71845e-08
8.23566e-08
8.87278e-08
9.23088e-08
9.40699e-08
1.02681e-07
1.59042e-07
4.98994e-07
2.03976e-06
3.17133e-06
1.15872e-06
3.62873e-07
1.14334e-07
8.63185e-08
9.44917e-08
1.15284e-07
1.43655e-07
1.7387e-07
1.95512e-07
1.89656e-07
1.77453e-07
1.18119e-07
1.00787e-07
9.90228e-08
1.03268e-07
1.27052e-07
2.67153e-07
1.08399e-06
3.81785e-06
4.34437e-06
1.78411e-06
5.82832e-07
1.37455e-07
8.81832e-08
9.55215e-08
1.18782e-07
1.52375e-07
1.97602e-07
2.59854e-07
2.96495e-07
3.75332e-07
2.03404e-07
1.26398e-07
1.05224e-07
1.07373e-07
1.50303e-07
4.21226e-07
1.94966e-06
5.37276e-06
4.97563e-06
2.43266e-06
8.20478e-07
1.72482e-07
9.30545e-08
9.52119e-08
1.19841e-07
1.63016e-07
2.3538e-07
3.68954e-07
3.88913e-07
5.77473e-07
3.13474e-07
1.62872e-07
1.17399e-07
1.19665e-07
1.95649e-07
6.65176e-07
3.01549e-06
6.1947e-06
5.23711e-06
3.06257e-06
1.03342e-06
2.15288e-07
1.06562e-07
9.82801e-08
1.16015e-07
1.58186e-07
2.49038e-07
4.57825e-07
4.64593e-07
7.79555e-07
4.51239e-07
2.07319e-07
1.56072e-07
1.81823e-07
3.26013e-07
1.09995e-06
3.72394e-06
6.24895e-06
5.22915e-06
3.54954e-06
1.15144e-06
2.55541e-07
1.42648e-07
1.29358e-07
1.32628e-07
1.52591e-07
2.21991e-07
4.49057e-07
5.28732e-07
9.94963e-07
6.14284e-07
3.28785e-07
3.77192e-07
4.78798e-07
7.52716e-07
1.63108e-06
3.70614e-06
5.84862e-06
5.06071e-06
3.76278e-06
1.14449e-06
3.44025e-07
2.72537e-07
2.79176e-07
2.78948e-07
2.57549e-07
2.60669e-07
4.1185e-07
5.88364e-07
1.25714e-06
1.01281e-06
1.11589e-06
1.38576e-06
1.58552e-06
1.83383e-06
2.45236e-06
3.81566e-06
5.53514e-06
5.07045e-06
3.76077e-06
1.77449e-06
1.19075e-06
1.12106e-06
1.10793e-06
1.01666e-06
8.28878e-07
6.11712e-07
5.49959e-07
6.74907e-07
1.53387e-06
2.033e-06
2.50874e-06
3.02142e-06
3.61833e-06
4.37348e-06
5.40992e-06
6.79166e-06
8.11433e-06
7.50594e-06
6.30369e-06
4.55974e-06
3.47592e-06
2.8083e-06
2.34064e-06
1.96789e-06
1.64243e-06
1.35353e-06
1.08568e-06
8.13223e-07
2.27174e-08
3.5774e-08
4.56572e-08
5.52698e-08
6.69549e-08
8.48549e-08
1.11682e-07
1.31694e-07
1.58404e-07
7.68279e-08
7.99886e-08
1.91286e-07
1.5849e-07
1.22096e-07
9.04562e-08
8.76166e-08
1.40658e-07
1.94324e-07
2.02545e-07
1.73788e-07
4.03931e-08
4.97656e-08
5.72359e-08
6.12437e-08
6.84298e-08
8.8224e-08
1.43803e-07
3.82052e-07
1.44448e-06
8.39922e-07
5.91361e-07
3.07323e-07
1.72872e-07
1.40735e-07
1.13373e-07
1.08271e-07
1.2318e-07
1.48509e-07
1.54467e-07
1.25302e-07
5.50788e-08
6.26102e-08
7.11403e-08
7.8272e-08
8.92805e-08
1.24541e-07
2.75274e-07
1.08215e-06
3.17133e-06
1.12387e-06
1.12904e-06
5.95707e-07
1.71091e-07
1.19014e-07
1.01059e-07
1.04099e-07
1.18361e-07
1.39667e-07
1.57884e-07
1.53628e-07
1.31684e-07
8.7481e-08
7.70798e-08
8.10227e-08
9.86944e-08
1.64665e-07
4.70448e-07
2.05371e-06
4.34437e-06
1.33728e-06
1.83387e-06
8.47839e-07
1.83426e-07
1.10921e-07
9.65224e-08
1.05224e-07
1.25992e-07
1.60589e-07
2.24843e-07
2.71046e-07
3.2446e-07
1.70693e-07
1.02766e-07
8.67119e-08
1.05543e-07
2.11417e-07
7.44499e-07
3.12579e-06
4.97563e-06
1.60058e-06
2.68846e-06
1.04478e-06
2.00323e-07
1.12124e-07
9.69596e-08
1.08896e-07
1.39219e-07
1.97249e-07
3.20394e-07
3.62573e-07
5.17345e-07
2.7497e-07
1.40304e-07
1.00902e-07
1.2388e-07
2.84101e-07
1.09522e-06
3.92975e-06
5.23711e-06
1.93677e-06
3.60577e-06
1.18898e-06
2.17005e-07
1.19814e-07
1.02192e-07
1.10863e-07
1.43442e-07
2.23043e-07
4.32788e-07
4.36929e-07
7.0898e-07
4.00915e-07
1.86165e-07
1.39078e-07
1.8662e-07
4.24419e-07
1.57161e-06
4.17266e-06
5.22915e-06
2.30752e-06
4.38547e-06
1.24605e-06
2.37112e-07
1.40282e-07
1.26878e-07
1.26969e-07
1.42911e-07
2.04208e-07
4.32365e-07
4.95968e-07
9.08853e-07
5.56665e-07
2.82104e-07
3.18673e-07
4.31799e-07
7.80483e-07
1.83873e-06
3.94446e-06
5.06071e-06
2.63352e-06
4.7321e-06
1.18093e-06
3.21036e-07
2.54439e-07
2.48944e-07
2.40549e-07
2.24034e-07
2.30451e-07
3.77618e-07
5.44322e-07
1.14661e-06
8.78218e-07
9.45726e-07
1.18414e-06
1.37518e-06
1.67955e-06
2.42478e-06
3.87183e-06
5.07045e-06
3.07457e-06
4.51875e-06
1.82488e-06
1.14647e-06
1.05794e-06
9.93251e-07
8.71728e-07
6.92172e-07
5.03013e-07
4.75291e-07
6.15653e-07
1.4363e-06
1.90169e-06
2.34181e-06
2.83953e-06
3.4378e-06
4.2213e-06
5.31076e-06
6.67291e-06
7.50594e-06
5.42734e-06
6.44376e-06
4.59489e-06
3.43339e-06
2.7359e-06
2.24794e-06
1.86241e-06
1.53378e-06
1.25248e-06
1.00386e-06
7.51175e-07
1.97435e-08
3.14819e-08
4.13453e-08
5.16517e-08
6.41623e-08
8.12576e-08
9.86333e-08
9.36355e-08
1.09127e-07
7.99886e-08
9.32996e-08
2.50204e-07
2.32604e-07
2.09189e-07
1.79004e-07
1.41407e-07
1.26681e-07
1.5145e-07
1.56482e-07
1.33876e-07
3.18949e-08
3.92669e-08
4.73269e-08
5.47564e-08
6.62799e-08
8.77009e-08
1.23789e-07
2.31031e-07
5.49127e-07
5.91361e-07
4.2368e-07
2.80163e-07
2.43944e-07
2.21433e-07
1.93141e-07
1.55213e-07
1.30075e-07
1.31469e-07
1.28898e-07
1.09763e-07
4.18325e-08
5.06599e-08
5.98629e-08
6.91159e-08
8.40894e-08
1.12962e-07
1.83172e-07
5.3549e-07
1.15872e-06
1.12904e-06
7.40891e-07
3.11921e-07
2.11832e-07
1.82465e-07
1.45051e-07
1.19562e-07
1.11081e-07
1.19325e-07
1.38832e-07
1.43958e-07
1.27862e-07
7.86251e-08
6.58053e-08
7.06768e-08
9.04426e-08
1.35896e-07
2.71984e-07
9.41855e-07
1.78411e-06
1.83387e-06
1.07967e-06
3.29503e-07
1.8861e-07
1.54464e-07
1.18602e-07
1.05084e-07
1.10994e-07
1.38566e-07
2.08999e-07
2.65562e-07
3.32663e-07
1.71914e-07
9.66599e-08
7.80958e-08
9.59311e-08
1.62106e-07
3.98249e-07
1.40521e-06
2.43266e-06
2.68846e-06
1.41752e-06
3.46333e-07
1.72214e-07
1.39331e-07
1.10078e-07
1.04623e-07
1.22582e-07
1.74075e-07
3.01675e-07
3.56859e-07
5.21717e-07
2.81671e-07
1.38753e-07
9.43305e-08
1.10853e-07
2.01953e-07
5.86493e-07
1.8404e-06
3.06257e-06
3.60577e-06
1.74015e-06
3.70413e-07
1.61958e-07
1.31756e-07
1.10861e-07
1.07979e-07
1.30459e-07
2.03018e-07
4.17005e-07
4.31127e-07
7.06868e-07
4.14732e-07
1.8655e-07
1.31671e-07
1.61527e-07
2.89286e-07
8.48514e-07
2.13417e-06
3.54954e-06
4.38547e-06
1.99659e-06
4.05008e-07
1.68925e-07
1.41322e-07
1.28453e-07
1.23153e-07
1.34007e-07
1.89058e-07
4.2324e-07
4.89476e-07
8.97261e-07
5.65914e-07
2.85584e-07
3.03713e-07
3.67704e-07
5.4347e-07
1.08855e-06
2.26714e-06
3.76278e-06
4.7321e-06
2.09846e-06
5.02593e-07
2.90207e-07
2.66213e-07
2.46681e-07
2.26859e-07
2.07616e-07
2.15961e-07
3.62064e-07
5.29736e-07
1.11716e-06
8.8219e-07
9.29273e-07
1.12985e-06
1.24708e-06
1.37217e-06
1.73278e-06
2.56251e-06
3.76077e-06
4.51875e-06
2.18927e-06
1.19196e-06
1.13671e-06
1.09076e-06
9.66494e-07
8.14781e-07
6.38425e-07
4.68757e-07
4.54391e-07
5.90531e-07
1.3647e-06
1.78079e-06
2.16711e-06
2.57215e-06
3.02815e-06
3.58463e-06
4.3266e-06
5.29952e-06
6.30369e-06
6.44376e-06
4.92166e-06
3.70004e-06
2.95894e-06
2.43784e-06
2.02761e-06
1.68759e-06
1.39546e-06
1.14707e-06
9.26779e-07
7.04104e-07
1.92076e-08
2.93764e-08
3.77599e-08
4.55371e-08
5.29528e-08
5.94047e-08
6.27858e-08
6.70325e-08
8.9102e-08
1.91286e-07
2.50204e-07
2.71485e-07
2.76178e-07
2.70719e-07
2.57534e-07
2.37298e-07
2.11197e-07
1.79108e-07
1.4833e-07
1.14816e-07
2.81472e-08
3.70335e-08
4.65794e-08
5.38293e-08
5.97647e-08
6.42132e-08
7.22706e-08
9.51082e-08
1.8899e-07
3.07323e-07
2.80163e-07
2.89555e-07
2.92468e-07
2.84457e-07
2.77502e-07
2.57078e-07
2.12202e-07
1.65278e-07
1.23254e-07
1.02905e-07
3.80019e-08
4.62075e-08
5.57082e-08
6.36616e-08
7.00725e-08
7.41938e-08
8.69504e-08
1.46069e-07
3.62873e-07
5.95707e-07
3.11921e-07
2.5234e-07
2.52053e-07
2.3565e-07
2.12705e-07
1.77142e-07
1.43561e-07
1.26143e-07
1.3486e-07
1.55484e-07
1.36538e-07
8.05907e-08
6.32271e-08
6.46098e-08
7.27723e-08
8.07182e-08
1.06334e-07
2.28249e-07
5.82832e-07
8.47839e-07
3.29503e-07
2.21032e-07
2.17115e-07
1.97847e-07
1.66505e-07
1.33443e-07
1.19135e-07
1.34676e-07
2.05314e-07
2.75206e-07
3.4835e-07
1.81631e-07
9.79688e-08
7.33104e-08
7.60516e-08
8.91424e-08
1.37663e-07
3.55998e-07
8.20478e-07
1.04478e-06
3.46333e-07
1.95607e-07
1.87302e-07
1.71019e-07
1.42751e-07
1.18508e-07
1.20792e-07
1.66349e-07
3.02801e-07
3.65096e-07
5.34768e-07
2.96968e-07
1.4362e-07
9.11268e-08
8.76128e-08
1.08587e-07
1.91418e-07
5.20163e-07
1.03342e-06
1.18898e-06
3.70413e-07
1.79582e-07
1.65325e-07
1.53616e-07
1.33484e-07
1.1607e-07
1.26007e-07
1.93473e-07
4.22337e-07
4.39322e-07
7.15443e-07
4.41318e-07
1.93436e-07
1.2894e-07
1.32524e-07
1.68005e-07
3.02584e-07
6.60925e-07
1.15144e-06
1.24605e-06
4.05008e-07
1.86609e-07
1.66393e-07
1.57421e-07
1.42434e-07
1.2744e-07
1.30571e-07
1.83899e-07
4.22992e-07
4.97925e-07
8.98921e-07
5.89835e-07
3.06207e-07
3.14179e-07
3.43327e-07
3.80414e-07
4.94453e-07
7.69284e-07
1.14449e-06
1.18093e-06
5.02593e-07
3.32117e-07
3.1395e-07
2.91697e-07
2.6013e-07
2.26428e-07
2.01885e-07
2.13446e-07
3.61375e-07
5.33437e-07
1.10388e-06
9.06565e-07
9.74719e-07
1.17792e-06
1.28094e-06
1.28823e-06
1.3168e-06
1.48524e-06
1.77449e-06
1.82488e-06
1.19196e-06
1.22922e-06
1.27601e-06
1.13112e-06
9.54325e-07
7.83367e-07
6.12539e-07
4.61359e-07
4.51254e-07
5.87829e-07
1.30808e-06
1.68602e-06
2.03173e-06
2.37164e-06
2.7236e-06
3.10475e-06
3.55026e-06
4.0681e-06
4.55974e-06
4.59489e-06
3.70004e-06
3.08265e-06
2.60491e-06
2.20076e-06
1.85579e-06
1.5603e-06
1.30386e-06
1.08442e-06
8.86126e-07
6.82056e-07
1.96108e-08
2.85294e-08
3.5318e-08
4.06042e-08
4.42524e-08
4.64187e-08
4.94357e-08
5.70195e-08
7.85532e-08
1.5849e-07
2.32604e-07
2.76178e-07
2.98417e-07
3.07518e-07
3.07465e-07
2.99217e-07
2.82377e-07
2.56331e-07
2.2204e-07
1.8266e-07
2.73692e-08
4.51593e-08
5.79635e-08
6.40765e-08
6.41772e-08
6.10984e-08
5.9085e-08
6.4767e-08
1.01962e-07
1.72872e-07
2.43944e-07
2.92468e-07
3.07572e-07
3.10055e-07
3.16905e-07
3.21734e-07
3.05441e-07
2.42194e-07
1.62764e-07
1.16243e-07
4.18525e-08
5.12674e-08
6.22714e-08
6.92528e-08
7.042e-08
6.79967e-08
6.70301e-08
7.5712e-08
1.14334e-07
1.71091e-07
2.11832e-07
2.52053e-07
2.66099e-07
2.60861e-07
2.51856e-07
2.32458e-07
1.95223e-07
1.58799e-07
1.57057e-07
1.91608e-07