/*--------------------------------*- C++ -*----------------------------------*\
  =========                 |
  \\      /  F ield         | OpenFOAM: The Open Source CFD Toolbox
   \\    /   O peration     | Website:  https://openfoam.org
    \\  /    A nd           | Version:  8
     \\/     M anipulation  |
\*---------------------------------------------------------------------------*/
FoamFile
{
    version     2.0;
    format      ascii;
    class       volScalarField;
    location    "1000";
    object      k;
}
// * * * * * * * * * * * * * * * * * * * * * * * * * * * * * * * * * * * * * //

dimensions      [0 2 -2 0 0 0 0];

internalField   nonuniform List<scalar> 
4000
(
4.7266e-05
4.5868e-05
4.3507e-05
4.04115e-05
3.69892e-05
3.29518e-05
2.61477e-05
1.38245e-05
7.21837e-06
5.83643e-06
5.30937e-06
5.20982e-06
5.28589e-06
5.80834e-06
1.70198e-05
2.70763e-05
3.13741e-05
3.38992e-05
3.64446e-05
3.88173e-05
5.13584e-05
4.99109e-05
4.59873e-05
4.02512e-05
3.31242e-05
2.75937e-05
2.23727e-05
1.53918e-05
1.12162e-05
8.56722e-06
7.32242e-06
6.73858e-06
6.6164e-06
9.0644e-06
1.51272e-05
2.29926e-05
2.77165e-05
3.3137e-05
3.87983e-05
4.25536e-05
5.38088e-05
5.33147e-05
4.94622e-05
4.32169e-05
3.4772e-05
2.59615e-05
2.04043e-05
1.62729e-05
1.32048e-05
1.0545e-05
8.76919e-06
8.21572e-06
8.76359e-06
1.05838e-05
1.37152e-05
1.91168e-05
2.68144e-05
3.48105e-05
4.16048e-05
4.47239e-05
5.52275e-05
5.60051e-05
5.33851e-05
4.87905e-05
4.31657e-05
3.73988e-05
3.22733e-05
2.76417e-05
2.30257e-05
1.88558e-05
1.84667e-05
1.92891e-05
2.12969e-05
2.42054e-05
2.70482e-05
3.06978e-05
3.51199e-05
4.01084e-05
4.44292e-05
4.59208e-05
5.63025e-05
5.84982e-05
5.78759e-05
5.56509e-05
5.26346e-05
4.91761e-05
4.55643e-05
4.18861e-05
3.79069e-05
3.43891e-05
3.49558e-05
3.60454e-05
3.73109e-05
3.86773e-05
4.01207e-05
4.17972e-05
4.38142e-05
4.59761e-05
4.75182e-05
4.68802e-05
5.73314e-05
6.10355e-05
6.23687e-05
6.22224e-05
6.12525e-05
5.95344e-05
5.71136e-05
5.40636e-05
5.05246e-05
4.6949e-05
4.72063e-05
4.79883e-05
4.87998e-05
4.9515e-05
5.00971e-05
5.05352e-05
5.07946e-05
5.08282e-05
5.01526e-05
4.75951e-05
5.84256e-05
6.37185e-05
6.69318e-05
6.86306e-05
6.93066e-05
6.89407e-05
6.7489e-05
6.50211e-05
6.17182e-05
5.79296e-05
5.78089e-05
5.82728e-05
5.86507e-05
5.87428e-05
5.8441e-05
5.77145e-05
5.65297e-05
5.48929e-05
5.2417e-05
4.81449e-05
5.97287e-05
6.68603e-05
7.19876e-05
7.55185e-05
7.77743e-05
7.86325e-05
7.79629e-05
7.58584e-05
7.26232e-05
6.83593e-05
6.77723e-05
6.78532e-05
6.77215e-05
6.71303e-05
6.59801e-05
6.42132e-05
6.17687e-05
5.86841e-05
5.46065e-05
4.8698e-05
6.14627e-05
7.06052e-05
7.78118e-05
8.31289e-05
8.69071e-05
8.90372e-05
8.93129e-05
8.78582e-05
8.4879e-05
7.98075e-05
7.84355e-05
7.78122e-05
7.69296e-05
7.55136e-05
7.34624e-05
7.0718e-05
6.71838e-05
6.28469e-05
5.72301e-05
4.95872e-05
6.37819e-05
7.38889e-05
8.20865e-05
8.80558e-05
9.24813e-05
9.55807e-05
9.74102e-05
9.79106e-05
9.6933e-05
9.27489e-05
8.96464e-05
8.71484e-05
8.45655e-05
8.17579e-05
7.86552e-05
7.51632e-05
7.11141e-05
6.62083e-05
5.96873e-05
5.10016e-05
4.5868e-05
4.70677e-05
4.56338e-05
4.25881e-05
3.88491e-05
3.44269e-05
2.78153e-05
1.76895e-05
9.56336e-06
7.89919e-06
7.25445e-06
6.92728e-06
6.80392e-06
9.27963e-06
2.09811e-05
2.96671e-05
3.42416e-05
3.74115e-05
4.00754e-05
3.99552e-05
4.99109e-05
5.56003e-05
5.32746e-05
4.69039e-05
3.88101e-05
3.24733e-05
2.61216e-05
1.9059e-05
1.52285e-05
1.34973e-05
1.2882e-05
1.26631e-05
1.24271e-05
1.35691e-05
2.02494e-05
2.82178e-05
3.36254e-05
4.07782e-05
4.82267e-05
4.4027e-05
5.33147e-05
6.0808e-05
6.00817e-05
5.36096e-05
4.28756e-05
3.24833e-05
2.57297e-05
2.05847e-05
1.72006e-05
1.52841e-05
1.43796e-05
1.38596e-05
1.32151e-05
1.43433e-05
1.861e-05
2.46349e-05
3.28774e-05
4.50957e-05
5.45157e-05
4.65102e-05
5.60051e-05
6.58109e-05
6.75216e-05
6.25709e-05
5.14588e-05
3.87657e-05
3.10874e-05
2.52322e-05
2.04652e-05
1.71339e-05
1.62341e-05
1.63744e-05
1.71227e-05
1.93563e-05
2.33896e-05
2.95031e-05
3.89675e-05
5.18664e-05
5.98561e-05
4.79868e-05
5.84982e-05
7.05345e-05
7.41885e-05
7.15037e-05
6.36184e-05
5.2203e-05
4.09076e-05
3.36513e-05
2.82065e-05
2.49391e-05
2.50145e-05
2.5932e-05
2.73967e-05
2.98128e-05
3.35291e-05
4.04431e-05
5.01766e-05
5.91655e-05
6.25433e-05
4.91263e-05
6.10355e-05
7.42949e-05
7.89661e-05
7.86002e-05
7.61248e-05
6.99052e-05
5.99406e-05
4.85427e-05
4.02828e-05
3.62226e-05
3.69402e-05
3.86713e-05
4.10074e-05
4.45477e-05
5.03226e-05
5.64803e-05
6.10143e-05
6.39847e-05
6.3154e-05
5.00872e-05
6.37185e-05
7.76923e-05
8.28361e-05
8.42954e-05
8.54209e-05
8.42859e-05
7.95986e-05
7.19344e-05
6.274e-05
5.62327e-05
5.79151e-05
6.14513e-05
6.51184e-05
6.81105e-05
6.93827e-05
6.9286e-05
6.77894e-05
6.61363e-05
6.30855e-05
5.11008e-05
6.68603e-05
8.19532e-05
8.83446e-05
9.14937e-05
9.38104e-05
9.41751e-05
9.13313e-05
8.5486e-05
7.87235e-05
7.40911e-05
7.46936e-05
7.68741e-05
7.84404e-05
7.89235e-05
7.80784e-05
7.5813e-05
7.1982e-05
6.84123e-05
6.43114e-05
5.25138e-05
7.06052e-05
8.83273e-05
9.95677e-05
0.00010785
0.000114021
0.000117212
0.000115752
0.000110208
0.000101982
9.28721e-05
9.2367e-05
9.40535e-05
9.48907e-05
9.40883e-05
9.1433e-05
8.71043e-05
8.11792e-05
7.49279e-05
6.79632e-05
5.44018e-05
7.38889e-05
8.6019e-05
9.60514e-05
0.000103722
0.000109725
0.000114193
0.000117052
0.000118101
0.000116946
0.000111813
0.000107034
0.000103203
9.92537e-05
9.50561e-05
9.05768e-05
8.57366e-05
8.03594e-05
7.41488e-05
6.62647e-05
5.61017e-05
4.3507e-05
4.56338e-05
4.48718e-05
4.22293e-05
3.86421e-05
3.40171e-05
2.69788e-05
1.68348e-05
1.02301e-05
9.29416e-06
8.70237e-06
8.19419e-06
7.84731e-06
1.09368e-05
2.26597e-05
3.12257e-05
3.59731e-05
3.9382e-05
4.17534e-05
4.02656e-05
4.59873e-05
5.32746e-05
5.23721e-05
4.72076e-05
4.02287e-05
3.39739e-05
2.70393e-05
2.02282e-05
1.73299e-05
1.64638e-05
1.63203e-05
1.64825e-05
1.59696e-05
1.64501e-05
2.31176e-05
3.1376e-05
3.75392e-05
4.50586e-05
5.1866e-05
4.42792e-05
4.94622e-05
6.00817e-05
5.99979e-05
5.445e-05
4.48614e-05
3.53416e-05
2.80099e-05
2.28394e-05
2.00702e-05
1.90535e-05
1.89397e-05
1.87221e-05
1.71903e-05
1.72801e-05
2.15717e-05
2.83627e-05
3.75213e-05
5.0732e-05
5.95276e-05
4.68927e-05
5.33851e-05
6.75216e-05
6.82166e-05
6.24712e-05
5.08745e-05
3.85672e-05
3.04719e-05
2.5092e-05
2.1215e-05
1.88606e-05
1.82023e-05
1.78954e-05
1.71801e-05
1.81099e-05
2.17937e-05
2.80198e-05
3.94877e-05
5.75296e-05
6.61981e-05
4.85615e-05
5.78759e-05
7.41885e-05
7.50868e-05
6.92705e-05
5.81178e-05
4.48431e-05
3.47049e-05
2.80795e-05
2.33708e-05
2.08102e-05
2.03924e-05
2.04255e-05
2.05912e-05
2.20379e-05
2.55135e-05
3.23063e-05
4.48488e-05
6.26017e-05
7.01728e-05
4.99232e-05
6.23687e-05
7.89661e-05
7.9819e-05
7.39045e-05
6.41445e-05
5.27033e-05
4.26485e-05
3.43492e-05
2.85074e-05
2.58126e-05
2.57964e-05
2.63457e-05
2.72982e-05
2.94703e-05
3.37118e-05
4.04848e-05
5.10066e-05
6.41743e-05
7.06676e-05
5.13484e-05
6.69318e-05
8.28361e-05
8.43522e-05
7.8542e-05
6.90258e-05
6.0168e-05
5.21818e-05
4.49155e-05
3.90742e-05
3.59395e-05
3.62175e-05
3.73493e-05
3.87437e-05
4.07227e-05
4.35991e-05
4.79056e-05
5.48331e-05
6.44907e-05
6.92654e-05
5.3247e-05
7.19876e-05
8.83446e-05
9.41352e-05
9.35213e-05
8.96248e-05
8.30374e-05
7.64331e-05
6.79735e-05
5.90102e-05
5.31827e-05
5.40414e-05
5.69106e-05
5.90829e-05
6.03563e-05
6.10875e-05
6.19192e-05
6.54006e-05
6.94349e-05
6.99387e-05
5.57024e-05
7.78118e-05
9.95677e-05
0.000119335
0.000136145
0.000147098
0.000152868
0.00014929
0.000138179
0.000123469
0.000109866
0.000109642
0.000114198
0.000117541
0.000117785
0.000114565
0.000108697
9.91832e-05
8.76351e-05
7.57037e-05
5.87285e-05
8.20865e-05
9.60514e-05
0.000107641
0.000116826
0.000124261
0.00012998
0.000133858
0.000135638
0.000134532
0.000128442
0.000121989
0.000116857
0.000111621
0.000106182
0.000100552
9.46265e-05
8.81844e-05
8.09606e-05
7.20976e-05
6.09138e-05
4.04115e-05
4.25881e-05
4.22293e-05
4.00113e-05
3.66351e-05
3.15117e-05
2.33191e-05
1.39033e-05
1.0811e-05
1.05565e-05
1.00944e-05
9.28484e-06
8.61157e-06
1.10267e-05
2.24449e-05
3.14519e-05
3.63755e-05
3.9737e-05
4.16407e-05
3.94626e-05
4.02512e-05
4.69039e-05
4.72076e-05
4.36038e-05
3.83406e-05
3.23375e-05
2.52997e-05
2.0189e-05
1.85694e-05
1.88948e-05
1.94852e-05
1.93584e-05
1.81246e-05
1.8148e-05
2.42082e-05
3.26849e-05
3.92214e-05
4.63299e-05
5.16728e-05
4.29022e-05
4.32169e-05
5.36096e-05
5.445e-05
5.09383e-05
4.32374e-05
3.48243e-05
2.80754e-05
2.3963e-05
2.23917e-05
2.26105e-05
2.33459e-05
2.26079e-05
1.99955e-05
1.95142e-05
2.36637e-05
3.10927e-05
4.07885e-05
5.2823e-05
5.9869e-05
4.55724e-05
4.87905e-05
6.25709e-05
6.24712e-05
5.73992e-05
4.78681e-05
3.7839e-05
3.06975e-05
2.61988e-05
2.34514e-05
2.25992e-05
2.28091e-05
2.1878e-05
1.94274e-05
1.91571e-05
2.26022e-05
2.94539e-05
4.19696e-05
5.93144e-05
6.72981e-05
4.7635e-05
5.56509e-05
7.15037e-05
6.92705e-05
6.27517e-05
5.26553e-05
4.1594e-05
3.32822e-05
2.76471e-05
2.39481e-05
2.26873e-05
2.26659e-05
2.16617e-05
1.98648e-05
1.98014e-05
2.28463e-05
2.95664e-05
4.35641e-05
6.35263e-05
7.2454e-05
4.95961e-05
6.22224e-05
7.86002e-05
7.39045e-05
6.58607e-05
5.60533e-05
4.57512e-05
3.72923e-05
3.08011e-05
2.66183e-05
2.53588e-05
2.52305e-05
2.43146e-05
2.31835e-05
2.34843e-05
2.63318e-05
3.25121e-05
4.47262e-05
6.40069e-05
7.41016e-05
5.17872e-05
6.86306e-05
8.42954e-05
7.8542e-05
6.92695e-05
6.10159e-05
5.31576e-05
4.6279e-05
4.03644e-05
3.61613e-05
3.43685e-05
3.3913e-05
3.31991e-05
3.25018e-05
3.25921e-05
3.4237e-05
3.83508e-05
4.70174e-05
6.27403e-05
7.27247e-05
5.45048e-05
7.55185e-05
9.14937e-05
9.35213e-05
9.08555e-05
8.92464e-05
8.68333e-05
8.22851e-05
7.49661e-05
6.66254e-05
6.00665e-05
5.90792e-05
6.03799e-05
6.12819e-05
6.11346e-05
6.05562e-05
6.04138e-05
6.28791e-05
7.04547e-05
7.29535e-05
5.78507e-05
8.31289e-05
0.00010785
0.000136145
0.000161314
0.000172165
0.000176402
0.000172588
0.000160475
0.000144262
0.000128989
0.000126409
0.000130968
0.000135198
0.000135702
0.00013192
0.000124371
0.000115843
9.96639e-05
8.12313e-05
6.18437e-05
8.80558e-05
0.000103722
0.000116826
0.0001276
0.000136798
0.000144072
0.000149338
0.000152344
0.000152285
0.000146043
0.00013674
0.000129541
0.000122719
0.000115976
0.000109174
0.000102098
9.44737e-05
8.62348e-05
7.64033e-05
6.42759e-05
3.69892e-05
3.88491e-05
3.86421e-05
3.66351e-05
3.28549e-05
2.64959e-05
1.75166e-05
1.19576e-05
1.16051e-05
1.19967e-05
1.16655e-05
1.02657e-05
9.11501e-06
1.03589e-05
2.05603e-05
3.0369e-05
3.55867e-05
3.87322e-05
4.01549e-05
3.76163e-05
3.31242e-05
3.88101e-05
4.02287e-05
3.83406e-05
3.41219e-05
2.82319e-05
2.25024e-05
1.9972e-05
2.00053e-05
2.2075e-05
2.31898e-05
2.12869e-05
1.88931e-05
1.89103e-05
2.38303e-05
3.21902e-05
3.8792e-05
4.50832e-05
4.89684e-05
3.987e-05
3.4772e-05
4.28756e-05
4.48614e-05
4.32374e-05
3.78271e-05
3.1558e-05
2.68158e-05
2.45882e-05
2.47444e-05
2.72551e-05
2.86728e-05
2.52261e-05
2.12072e-05
2.07851e-05
2.46992e-05
3.21918e-05
4.16926e-05
5.20699e-05
5.74762e-05
4.24827e-05
4.31657e-05
5.14588e-05
5.08745e-05
4.78681e-05
4.1765e-05
3.50504e-05
3.00944e-05
2.71919e-05
2.66593e-05
2.90023e-05
2.98608e-05
2.59373e-05
2.11587e-05
2.04536e-05
2.39331e-05
3.11693e-05
4.33514e-05
5.83847e-05
6.58185e-05
4.51471e-05
5.26346e-05
6.36184e-05
5.81178e-05
5.26553e-05
4.57117e-05
3.8361e-05
3.25529e-05
2.86685e-05
2.76907e-05
3.02079e-05
3.05153e-05
2.61827e-05
2.12881e-05
2.01278e-05
2.29439e-05
2.98027e-05
4.34508e-05
6.20725e-05
7.21532e-05
4.80761e-05
6.12525e-05
7.61248e-05
6.41445e-05
5.60533e-05
4.88988e-05
4.18491e-05
3.58661e-05
3.17103e-05
3.11895e-05
3.42201e-05
3.35615e-05
2.8641e-05
2.4159e-05
2.25389e-05
2.42582e-05
2.97407e-05
4.18721e-05
6.21265e-05
7.49129e-05
5.11692e-05
6.93066e-05
8.54209e-05
6.90258e-05
6.10159e-05
5.61385e-05
5.14791e-05
4.70598e-05
4.37421e-05
4.36411e-05
4.58148e-05
4.32364e-05
3.79862e-05
3.43517e-05
3.25208e-05
3.2627e-05
3.54029e-05
4.34449e-05
5.99682e-05
7.34365e-05
5.4673e-05
7.77743e-05
9.38104e-05
8.96248e-05
8.92464e-05
9.27895e-05
9.39207e-05
9.0957e-05
8.47141e-05
7.92273e-05
7.43844e-05
6.8638e-05
6.58868e-05
6.59834e-05
6.59062e-05
6.47174e-05
6.30708e-05
6.38073e-05
6.97871e-05
7.35942e-05
5.86907e-05
8.69071e-05
0.000114021
0.000147098
0.000172165
0.000187814
0.000194297
0.000188921
0.000174545
0.000158496
0.000142991
0.000135438
0.000138611
0.000145022
0.00014824
0.000145741
0.000137058
0.000124811
0.000106699
8.40445e-05
6.35027e-05
9.24813e-05
0.000109725
0.000124261
0.000136798
0.000147762
0.000156781
0.00016405
0.000169402
0.000171735
0.000165893
0.000152447
0.000142047
0.000132954
0.000124578
0.00011651
0.000108337
9.96026e-05
9.01696e-05
7.93878e-05
6.64059e-05
3.29518e-05
3.44269e-05
3.40171e-05
3.15117e-05
2.64959e-05
1.89244e-05
1.29097e-05
1.19267e-05
1.28105e-05
1.40495e-05
1.36577e-05
1.10805e-05
9.40459e-06
9.70753e-06
1.74054e-05
2.80217e-05
3.38192e-05
3.67262e-05
3.77314e-05
3.50438e-05
2.75937e-05
3.24733e-05
3.39739e-05
3.23375e-05
2.82319e-05
2.34155e-05
2.0616e-05
1.99299e-05
2.2428e-05
2.72458e-05
2.80226e-05
2.20575e-05
1.86291e-05
1.89722e-05
2.25339e-05
3.01033e-05
3.65782e-05
4.19041e-05
4.46407e-05
3.57494e-05
2.59615e-05
3.24833e-05
3.53416e-05
3.48243e-05
3.1558e-05
2.7904e-05
2.56379e-05
2.53861e-05
2.86936e-05
3.5569e-05
3.5309e-05
2.62145e-05
2.11638e-05
2.1068e-05
2.46419e-05
3.15012e-05
4.01799e-05
4.89882e-05
5.3051e-05
3.84527e-05
3.73988e-05
3.87657e-05
3.85672e-05
3.7839e-05
3.50504e-05
3.16336e-05
2.91267e-05
2.87196e-05
3.33328e-05
4.21474e-05
3.96582e-05
2.82542e-05
2.18478e-05
2.11672e-05
2.4682e-05
3.16781e-05
4.259e-05
5.54429e-05
6.24417e-05
4.21312e-05
4.91761e-05
5.2203e-05
4.48431e-05
4.1594e-05
3.8361e-05
3.46628e-05
3.16094e-05
3.11047e-05
3.75867e-05
4.8872e-05
4.3865e-05
3.02883e-05
2.27588e-05
2.10027e-05
2.37113e-05
3.04495e-05
4.27642e-05
5.91495e-05
7.02644e-05
4.6106e-05
5.95344e-05
6.99052e-05
5.27033e-05
4.57512e-05
4.18491e-05
3.82421e-05
3.53627e-05
3.59405e-05
4.55257e-05
5.89547e-05
5.00054e-05
3.45706e-05
2.64133e-05
2.35055e-05
2.44807e-05
2.93559e-05
4.032e-05
5.89712e-05
7.44281e-05
4.98432e-05
6.89407e-05
8.42859e-05
6.0168e-05
5.31576e-05
5.14791e-05
5.02104e-05
4.92723e-05
5.19069e-05
6.40864e-05
7.59844e-05
6.17951e-05
4.52339e-05
3.75574e-05
3.44e-05
3.34978e-05
3.49801e-05
4.16544e-05
5.64462e-05
7.26982e-05
5.38439e-05
7.86325e-05
9.41751e-05
8.30374e-05
8.68333e-05
9.39207e-05
9.7395e-05
9.64844e-05
9.60659e-05
0.00010411
0.00010545
8.57504e-05
7.05523e-05
6.74086e-05
6.80795e-05
6.74169e-05
6.49618e-05
6.39628e-05
6.76018e-05
7.25847e-05
5.82337e-05
8.90372e-05
0.000117212
0.000152868
0.000176402
0.000194297
0.000199339
0.000192588
0.000181526
0.000174596
0.000162927
0.000143676
0.000138211
0.000143941
0.000150154
0.000150456
0.000142579
0.000128251
0.000109132
8.40142e-05
6.36375e-05
9.55807e-05
0.000114193
0.00012998
0.000144072
0.000156781
0.00016807
0.000178468
0.00018795
0.000194876
0.000190234
0.000170586
0.000154995
0.000142435
0.0001318
0.000122157
0.000112769
0.000102986
9.25515e-05
8.09949e-05
6.73679e-05
2.61477e-05
2.78153e-05
2.69788e-05
2.33191e-05
1.75166e-05
1.29097e-05
1.19711e-05
1.2702e-05
1.4635e-05
1.68783e-05
1.55484e-05
1.15071e-05
9.80127e-06
9.68954e-06
1.40166e-05
2.44079e-05
3.12682e-05
3.41443e-05
3.47157e-05
3.20004e-05
2.23727e-05
2.61216e-05
2.70393e-05
2.52997e-05
2.25024e-05
2.0616e-05
1.9702e-05
2.12924e-05
2.72457e-05
3.61062e-05
3.32463e-05
2.25671e-05
1.79563e-05
1.85322e-05
2.11592e-05
2.69997e-05
3.30989e-05
3.73498e-05
3.90061e-05
3.07407e-05
2.04043e-05
2.57297e-05
2.80099e-05
2.80754e-05
2.68158e-05
2.56379e-05
2.53809e-05
2.78799e-05
3.8818e-05
5.51184e-05
4.44725e-05
2.75787e-05
2.09026e-05
2.07513e-05
2.38105e-05
2.94302e-05
3.666e-05
4.3603e-05
4.63561e-05
3.35444e-05
3.22733e-05
3.10874e-05
3.04719e-05
3.06975e-05
3.00944e-05
2.91267e-05
2.9177e-05
3.41762e-05
5.31165e-05
7.61044e-05
5.61575e-05
3.17496e-05
2.24103e-05
2.13806e-05
2.45913e-05
3.07396e-05
3.97588e-05
5.02534e-05
5.6528e-05
3.88987e-05
4.55643e-05
4.09076e-05
3.47049e-05
3.32822e-05
3.25529e-05
3.16094e-05
3.21156e-05
4.04785e-05
7.02156e-05
0.00010142
7.05295e-05
3.73295e-05
2.45866e-05
2.1893e-05
2.42399e-05
3.04074e-05
4.09701e-05
5.51205e-05
6.66655e-05
4.38036e-05
5.71136e-05
5.99406e-05
4.26485e-05
3.72923e-05
3.58661e-05
3.53627e-05
3.75095e-05
5.14952e-05
9.44957e-05
0.00013041
8.82431e-05
4.5841e-05
2.96891e-05
2.50353e-05
2.53206e-05
2.95485e-05
3.91439e-05
5.56549e-05
7.35804e-05
4.8032e-05
6.7489e-05
7.95986e-05
5.21818e-05
4.6279e-05
4.70598e-05
4.92723e-05
5.49925e-05
7.62648e-05
0.000131181
0.000162308
0.000109367
6.00508e-05
4.1426e-05
3.62075e-05
3.46244e-05
3.5179e-05
4.03645e-05
5.37235e-05
7.21419e-05
5.22201e-05
7.79629e-05
9.13313e-05
7.64331e-05
8.22851e-05
9.0957e-05
9.64844e-05
0.000102652
0.000124926
0.00016735
0.000177994
0.000127113
8.02729e-05
6.6033e-05
6.60023e-05
6.66598e-05
6.42767e-05
6.20244e-05
6.33721e-05
7.0299e-05
5.66046e-05
8.93129e-05
0.000115752
0.00014929
0.000172588
0.000188921
0.000192588
0.000190501
0.000195369
0.000211889
0.000207463
0.000166417
0.000138458
0.000136547
0.00014325
0.000146163
0.000139999
0.000125032
0.000105994
8.0648e-05
6.22412e-05
9.74102e-05
0.000117052
0.000133858
0.000149338
0.00016405
0.000178468
0.000193635
0.00020987
0.000224581
0.000221704
0.000193366
0.000169471
0.000151664
0.000137857
0.000126188
0.000115369
0.000104501
9.32543e-05
8.11687e-05
6.72083e-05
1.38245e-05
1.76895e-05
1.68348e-05
1.39033e-05
1.19576e-05
1.19267e-05
1.2702e-05
1.43515e-05
1.72834e-05
1.88455e-05
1.50561e-05
1.20198e-05
1.07581e-05
1.04466e-05
1.19124e-05
1.98116e-05
2.79984e-05
3.13118e-05
3.15733e-05
2.88967e-05
1.53918e-05
1.9059e-05
2.02282e-05
2.0189e-05
1.9972e-05
1.99299e-05
2.12924e-05
2.59381e-05
3.8481e-05
5.92969e-05
4.35593e-05
2.41707e-05
1.80583e-05
1.80509e-05
2.0246e-05
2.38792e-05
2.90886e-05
3.25605e-05
3.28903e-05
2.51218e-05
1.62729e-05
2.05847e-05
2.28394e-05
2.3963e-05
2.45882e-05
2.53861e-05
2.78799e-05
3.83731e-05
7.32585e-05
0.000116623
7.48893e-05
3.37414e-05
2.19366e-05
2.05972e-05
2.27136e-05
2.67347e-05
3.20282e-05
3.68132e-05
3.7524e-05
2.83819e-05
2.76417e-05
2.52322e-05
2.5092e-05
2.61988e-05
2.71919e-05
2.87196e-05
3.41762e-05
5.60948e-05
0.000120583
0.000178406
0.000106209
4.41911e-05
2.47748e-05
2.17415e-05
2.39117e-05
2.86588e-05
3.52359e-05
4.23464e-05
4.69499e-05
3.54567e-05
4.18861e-05
3.36513e-05
2.80795e-05
2.76471e-05
2.86685e-05
3.11047e-05
4.04785e-05
7.85432e-05
0.000179203
0.000236815
0.000138647
5.82749e-05
2.89612e-05
2.31738e-05
2.43895e-05
2.93807e-05
3.77038e-05
4.88268e-05
6.04362e-05
4.12793e-05
5.40636e-05
4.85427e-05
3.43492e-05
3.08011e-05
3.17103e-05
3.59405e-05
5.14952e-05
0.000110702
0.000241686
0.000279845
0.000168118
7.51474e-05
3.61329e-05
2.71381e-05
2.61894e-05
2.94869e-05
3.75301e-05
5.17859e-05
7.16333e-05
4.59054e-05
6.50211e-05
7.19344e-05
4.49155e-05
4.03644e-05
4.37421e-05
5.19069e-05
7.62648e-05
0.000156697
0.000282432
0.000295631
0.000188589
8.98686e-05
4.72219e-05
3.75282e-05
3.50521e-05
3.50379e-05
3.89222e-05
5.08886e-05
7.18989e-05
5.00467e-05
7.58584e-05
8.5486e-05
6.79735e-05
7.49661e-05
8.47141e-05
9.60659e-05
0.000124926
0.000194868
0.000283621
0.000287529
0.000199336
0.000101498
6.3988e-05
6.06154e-05
6.17919e-05
6.06006e-05
5.80885e-05
5.89241e-05
6.71075e-05
5.40885e-05
8.78582e-05
0.000110208
0.000138179
0.000160475
0.000174545
0.000181526
0.000195369
0.000232269
0.000284197
0.000281195
0.000214316
0.000147564
0.000128988
0.000132062
0.000135502
0.000130581
0.000115902
9.6334e-05
7.41044e-05
5.95194e-05
9.79106e-05
0.000118101
0.000135638
0.000152344
0.000169402
0.00018795
0.00020987
0.000235965
0.00026136
0.000258094
0.000221316
0.000185536
0.000160452
0.000142555
0.000128435
0.000115998
0.00010402
9.21463e-05
7.9836e-05
6.59279e-05
7.21837e-06
9.56336e-06
1.02301e-05
1.0811e-05
1.16051e-05
1.28105e-05
1.4635e-05
1.72834e-05
1.94951e-05
2.13047e-05
1.65835e-05
1.44238e-05
1.32378e-05
1.21089e-05
1.19746e-05
1.57352e-05
2.39118e-05
2.81974e-05
2.85239e-05
2.61117e-05
1.12162e-05
1.52285e-05
1.73299e-05
1.85694e-05
2.00053e-05
2.2428e-05
2.72457e-05
3.8481e-05
7.52401e-05
0.00011026
6.07178e-05
3.2174e-05
2.2148e-05
1.95771e-05
1.99193e-05
2.17478e-05
2.51743e-05
2.82248e-05
2.81778e-05
2.03393e-05
1.32048e-05
1.72006e-05
2.00702e-05
2.23917e-05
2.47444e-05
2.86936e-05
3.8818e-05
7.32585e-05
0.000162009
0.000195517
0.000105336
5.22028e-05
2.66037e-05
2.18651e-05
2.20017e-05
2.41815e-05
2.74057e-05
3.03562e-05
3.02396e-05
2.40575e-05
2.30257e-05
2.04652e-05
2.1215e-05
2.34514e-05
2.66593e-05
3.33328e-05
5.31165e-05
0.000120583
0.000251057
0.000252175
0.000146922
7.33702e-05
3.126e-05
2.3305e-05
2.3209e-05
2.60561e-05
3.01524e-05
3.4264e-05
3.71246e-05
3.24083e-05
3.79069e-05
2.82065e-05
2.33708e-05
2.39481e-05
2.76907e-05
3.75867e-05
7.02156e-05
0.000179203
0.000324626
0.000287156
0.000187387
9.42939e-05
3.71811e-05
2.55058e-05
2.43892e-05
2.75334e-05
3.32934e-05
4.11299e-05
5.18523e-05
3.88287e-05
5.05246e-05
4.02828e-05
2.85074e-05
2.66183e-05
3.11895e-05
4.55257e-05
9.44957e-05
0.000241686
0.000366707
0.0003078
0.000225142
0.000112657
4.42773e-05
2.9847e-05
2.69212e-05
2.88172e-05
3.49631e-05
4.68586e-05
6.82026e-05
4.37125e-05
6.17182e-05
6.274e-05
3.90742e-05
3.61613e-05
4.36411e-05
6.40864e-05
0.000131181
0.000282432
0.000377269
0.00031722
0.000254748
0.000124319
5.15226e-05
3.80742e-05
3.4807e-05
3.42381e-05
3.71049e-05
4.74083e-05
7.10482e-05
4.76551e-05
7.26232e-05
7.87235e-05
5.90102e-05
6.66254e-05
7.92273e-05
0.00010411
0.00016735
0.000283621
0.00036748
0.00031893
0.00027105
0.000127429
6.27598e-05
5.53613e-05
5.55644e-05
5.51207e-05
5.29512e-05
5.39517e-05
6.37299e-05
5.1194e-05
8.4879e-05
0.000101982
0.000123469
0.000144262
0.000158496
0.000174596
0.000211889
0.000284197
0.000355329
0.000324067
0.000272436
0.000162987
0.000124867
0.00012212
0.00012311
0.000117415
0.000103049
8.40094e-05
6.67523e-05
5.61147e-05
9.6933e-05
0.000116946
0.000134532
0.000152285
0.000171735
0.000194876
0.000224581
0.00026136
0.000294151
0.000278914
0.000248322
0.000200114
0.000167013
0.000144893
0.000128342
0.000114348
0.000101392
8.91527e-05
7.69901e-05
6.3527e-05
5.83643e-06
7.89919e-06
9.29416e-06
1.05565e-05
1.19967e-05
1.40495e-05
1.68783e-05
1.88455e-05
2.13047e-05
2.38973e-05
2.48441e-05
2.40499e-05
2.11663e-05
1.77446e-05
1.45488e-05
1.43987e-05
1.98518e-05
2.44974e-05
2.51417e-05
2.26743e-05
8.56722e-06
1.34973e-05
1.64638e-05
1.88948e-05
2.2075e-05
2.72458e-05
3.61062e-05
5.92969e-05
0.00011026
7.80157e-05
6.85449e-05
4.42247e-05
2.98296e-05
2.59005e-05
2.26639e-05
2.1372e-05
2.20526e-05
2.42668e-05
2.43563e-05
1.82072e-05
1.0545e-05
1.52841e-05
1.90535e-05
2.26105e-05
2.72551e-05
3.5569e-05
5.51184e-05
0.000116623
0.000195517
0.000100039
0.000107988
7.25634e-05
3.3015e-05
2.59707e-05
2.28531e-05
2.24859e-05
2.3575e-05
2.52627e-05
2.55012e-05
2.08735e-05
1.88558e-05
1.71339e-05
1.88606e-05
2.25992e-05
2.90023e-05
4.21474e-05
7.61044e-05
0.000178406
0.000252175
0.00011678
0.000152656
9.39287e-05
3.65744e-05
2.65449e-05
2.33142e-05
2.37259e-05
2.57348e-05
2.85193e-05
3.25059e-05
3.05056e-05
3.43891e-05
2.49391e-05
2.08102e-05
2.26873e-05
3.02079e-05
4.8872e-05
0.00010142
0.000236815
0.000287156
0.000135506
0.000200702
0.00010965
4.0277e-05
2.83585e-05
2.4665e-05
2.54848e-05
2.89573e-05
3.47867e-05
4.49552e-05
3.70375e-05
4.6949e-05
3.62226e-05
2.58126e-05
2.53588e-05
3.42201e-05
5.89547e-05
0.00013041
0.000279845
0.0003078
0.000157663
0.00024805
0.000121335
4.41002e-05
3.16353e-05
2.75189e-05
2.76971e-05
3.18882e-05
4.19999e-05
6.46452e-05
4.19432e-05
5.79296e-05
5.62327e-05
3.59395e-05
3.43685e-05
4.58148e-05
7.59844e-05
0.000162308
0.000295631
0.00031722
0.000181467
0.0002871
0.00012779
4.89347e-05
3.73971e-05
3.43072e-05
3.31297e-05
3.4938e-05
4.38792e-05
6.97871e-05
4.56449e-05
6.83593e-05
7.40911e-05
5.31827e-05
6.00665e-05
7.43844e-05
0.00010545
0.000177994
0.000287529
0.00031893
0.000203536
0.000307565
0.000127237
6.03777e-05
5.34222e-05
5.2188e-05
5.06373e-05
4.85234e-05
4.97386e-05
6.12726e-05
4.85908e-05
7.98075e-05
9.28721e-05
0.000109866
0.000128989
0.000142991
0.000162927
0.000207463
0.000281195
0.000324067
0.000230505
0.000301044
0.000162808
0.000121761
0.000118354
0.00011522
0.000106509
9.1804e-05
7.42031e-05
6.1108e-05
5.27708e-05
9.27489e-05
0.000111813
0.000128442
0.000146043
0.000165893
0.000190234
0.000221704
0.000258094
0.000278914
0.000224667
0.000251737
0.000200949
0.000165529
0.000142317
0.000124881
0.000110194
9.68539e-05
8.46523e-05
7.30666e-05
6.02476e-05
5.30937e-06
7.25445e-06
8.70237e-06
1.00944e-05
1.16655e-05
1.36577e-05
1.55484e-05
1.50561e-05
1.65835e-05
2.48441e-05
2.9066e-05
2.88995e-05
2.75025e-05
2.55904e-05
2.30163e-05
1.96523e-05
1.83593e-05
2.07607e-05
2.11876e-05
1.90592e-05
7.32242e-06
1.2882e-05
1.63203e-05
1.94852e-05
2.31898e-05
2.80226e-05
3.32463e-05
4.35593e-05
6.07178e-05
6.85449e-05
5.95689e-05
4.26459e-05
3.76354e-05
3.40852e-05
3.02876e-05
2.58063e-05
2.24275e-05
2.18723e-05
2.10481e-05
1.66826e-05
8.76919e-06
1.43796e-05
1.89397e-05
2.33459e-05
2.86728e-05
3.5309e-05
4.44725e-05
7.48893e-05
0.000105336
0.000107988
8.66582e-05
5.04545e-05
3.80663e-05
3.31053e-05
2.75673e-05
2.37368e-05
2.19293e-05
2.2022e-05
2.28638e-05
1.99493e-05
1.84667e-05
1.62341e-05
1.82023e-05
2.28091e-05
2.98608e-05
3.96582e-05
5.61575e-05
0.000106209
0.000146922
0.000152656
0.000112164
5.48222e-05
3.78915e-05
3.18921e-05
2.58949e-05
2.30952e-05
2.29138e-05
2.49461e-05
3.02866e-05
3.0064e-05
3.49558e-05
2.50145e-05
2.03924e-05
2.26659e-05
3.05153e-05
4.3865e-05
7.05295e-05
0.000138647
0.000187387
0.000200702
0.000135076
5.80109e-05
3.79293e-05
3.18973e-05
2.63201e-05
2.43618e-05
2.58254e-05
3.09569e-05
4.24169e-05
3.66255e-05
4.72063e-05
3.69402e-05
2.57964e-05
2.52305e-05
3.35615e-05
5.00054e-05
8.82431e-05
0.000168118
0.000225142
0.00024805
0.000155619
6.15657e-05
3.8713e-05
3.31687e-05
2.85969e-05
2.6882e-05
2.92963e-05
3.85368e-05
6.26263e-05
4.15509e-05
5.78089e-05
5.79151e-05
3.62175e-05
3.3913e-05
4.32364e-05
6.17951e-05
0.000109367
0.000188589
0.000254748
0.0002871
0.000172414
6.67379e-05
4.23004e-05
3.75811e-05
3.43553e-05
3.22955e-05
3.31112e-05
4.1218e-05
6.92043e-05
4.52229e-05
6.77723e-05
7.46936e-05
5.40414e-05
5.90792e-05
6.8638e-05
8.57504e-05
0.000127113
0.000199336
0.00027105
0.000307565
0.000182715
7.90607e-05
5.92644e-05
5.58618e-05
5.25673e-05
4.92567e-05
4.6403e-05
4.77542e-05
6.03018e-05
4.76946e-05
7.84355e-05
9.2367e-05
0.000109642
0.000126409
0.000135438
0.000143676
0.000166417
0.000214316
0.000272436
0.000301044
0.000190507
0.000128699
0.000126079
0.000123962
0.000115235
0.000103176
8.78681e-05
7.14467e-05
5.98121e-05
5.12988e-05
8.96464e-05
0.000107034
0.000121989
0.00013674
0.000152447
0.000170586
0.000193366
0.000221316
0.000248322
0.000251737
0.00021025
0.000173923
0.000149904
0.000131767
0.000116555
0.000103159
9.09145e-05
7.98072e-05
6.92491e-05
5.76763e-05
5.20982e-06
6.92728e-06
8.19419e-06
9.28484e-06
1.02657e-05
1.10805e-05
1.15071e-05
1.20198e-05
1.44238e-05
2.40499e-05
2.88995e-05
3.05378e-05
3.08868e-05
3.04684e-05
2.94607e-05
2.78896e-05
2.58033e-05
2.31153e-05
2.04048e-05
1.71893e-05
6.73858e-06
1.26631e-05
1.64825e-05
1.93584e-05
2.12869e-05
2.20575e-05
2.25671e-05
2.41707e-05
3.2174e-05
4.42247e-05
4.26459e-05
4.39747e-05
4.39668e-05
4.20651e-05
3.98044e-05
3.60787e-05
3.03418e-05
2.49692e-05
1.995e-05
1.5971e-05
8.21572e-06
1.38596e-05
1.87221e-05
2.26079e-05
2.52261e-05
2.62145e-05
2.75787e-05
3.37414e-05
5.22028e-05
7.25634e-05
5.04545e-05
4.44659e-05
4.40673e-05
4.06469e-05
3.58532e-05
2.99454e-05
2.49597e-05
2.21021e-05
2.18679e-05
2.097e-05
1.92891e-05
1.63744e-05
1.78954e-05
2.1878e-05
2.59373e-05
2.82542e-05
3.17496e-05
4.41911e-05
7.33702e-05
9.39287e-05
5.48222e-05
4.34923e-05
4.26019e-05
3.85023e-05
3.22145e-05
2.63118e-05
2.32945e-05
2.38992e-05
2.95771e-05
3.07717e-05
3.60454e-05
2.5932e-05
2.04255e-05
2.16617e-05
2.61827e-05
3.02883e-05
3.73295e-05
5.82749e-05
9.42939e-05
0.00010965
5.80109e-05
4.22889e-05
4.08679e-05
3.70896e-05
3.09917e-05
2.601e-05
2.51028e-05
2.96599e-05
4.27439e-05
3.71746e-05
4.79883e-05
3.86713e-05
2.63457e-05
2.43146e-05
2.8641e-05
3.45706e-05
4.5841e-05
7.51474e-05
0.000112657
0.000121335
6.15657e-05
4.20987e-05
4.00428e-05
3.70433e-05
3.21153e-05
2.79387e-05
2.83519e-05
3.7174e-05
6.39452e-05
4.20648e-05
5.82728e-05
6.14513e-05
3.73493e-05
3.31991e-05
3.79862e-05
4.52339e-05
6.00508e-05
8.98686e-05
0.000124319
0.00012779
6.67379e-05
4.55235e-05
4.30438e-05
4.07705e-05
3.68415e-05
3.29712e-05
3.24898e-05
4.05229e-05
6.98305e-05
4.57308e-05
6.78532e-05
7.68741e-05
5.69106e-05
6.03799e-05
6.58868e-05
7.05523e-05
8.02729e-05
0.000101498
0.000127429
0.000127237
7.90607e-05
6.53325e-05
6.36401e-05
6.05833e-05
5.55515e-05
4.99119e-05
4.60193e-05
4.78091e-05
6.11576e-05
4.79011e-05
7.78122e-05
9.40535e-05
0.000114198
0.000130968
0.000138611
0.000138211
0.000138458
0.000147564
0.000162987
0.000162808
0.000128699
0.00013455
0.000139168
0.000130025
0.000116708
0.000102234
8.67067e-05
7.17092e-05
6.06467e-05
5.11195e-05
8.71484e-05
0.000103203
0.000116857
0.000129541
0.000142047
0.000154995
0.000169471
0.000185536
0.000200114
0.000200949
0.000173923
0.000154035
0.000137685
0.000123041
0.000109824
9.78506e-05
8.68408e-05
7.68319e-05
6.71749e-05
5.64407e-05
5.28589e-06
6.80392e-06
7.84731e-06
8.61157e-06
9.11501e-06
9.40459e-06
9.80127e-06
1.07581e-05
1.32378e-05
2.11663e-05
2.75025e-05
3.08868e-05
3.25377e-05
3.31977e-05
3.31924e-05
3.25951e-05
3.13606e-05
2.94021e-05
2.6717e-05
2.34528e-05
6.6164e-06
1.24271e-05
1.59696e-05
1.81246e-05
1.88931e-05
1.86291e-05
1.79563e-05
1.80583e-05
2.2148e-05
2.98296e-05
3.76354e-05
4.39668e-05
4.67915e-05
4.72338e-05
4.70306e-05
4.58281e-05
4.20566e-05
3.36034e-05
2.40535e-05
1.73214e-05
8.76359e-06
1.32151e-05
1.71903e-05
1.99955e-05
2.12072e-05
2.11638e-05
2.09026e-05
2.19366e-05
2.66037e-05
3.3015e-05
3.80663e-05
4.40673e-05
4.70959e-05
4.63619e-05
4.35475e-05
3.86016e-05
3.18476e-05
2.5984e-05
2.40311e-05
2.40993e-05
2.12969e-05
1.71227e-05
1.71801e-05
1.94274e-05
2.11587e-05