/*--------------------------------*- C++ -*----------------------------------*\
  =========                 |
  \\      /  F ield         | OpenFOAM: The Open Source CFD Toolbox
   \\    /   O peration     | Website:  https://openfoam.org
    \\  /    A nd           | Version:  8
     \\/     M anipulation  |
\*---------------------------------------------------------------------------*/
FoamFile
{
    version     2.0;
    format      ascii;
    class       surfaceScalarField;
    location    "1000";
    object      phi;
}
// * * * * * * * * * * * * * * * * * * * * * * * * * * * * * * * * * * * * * //

dimensions      [1 0 -1 0 0 0 0];

internalField   nonuniform List<scalar> 
11200
(
0.00362075
-0.00722018
0.00362075
0.00567992
-0.00543272
0.00337355
0.00660832
-0.0038555
0.0029271
0.00655036
-0.00236637
0.00242433
0.00535502
-0.000699
0.00189434
0.00306118
0.000913459
0.00138039
0.00038315
0.00173948
0.000938564
-0.000846856
0.000815733
0.000414241
-0.000616223
-0.000253593
2.29625e-05
-0.000259083
-0.000342003
-1.51264e-05
-1.91161e-05
-0.000242025
2.06286e-06
0.000163476
-0.000228288
4.56987e-05
0.000503967
-0.000406296
6.58172e-05
0.000300157
-0.000138156
0.000341962
-0.00214133
0.00144531
0.000996217
-0.00502594
0.00173304
0.0011516
-0.0066082
0.000402592
0.00117967
-0.00647148
-0.00145202
0.00131531
-0.00449829
-0.00342354
0.00145035
-0.0061131
0.00161482
0.00178955
-0.0107993
0.00178955
0.00279546
-0.00837265
0.00193402
0.00308029
-0.00595887
0.00181854
0.002881
-0.00376245
0.00159537
0.00225911
-0.00133367
0.00125657
0.00145032
0.000889733
0.000832527
0.00104023
0.00156409
0.000585498
0.000871845
0.000725958
0.000258149
0.000536301
6.90543e-05
1.28931e-05
0.000335637
2.00821e-06
-0.000143353
0.000165594
0.000152496
-0.000224483
-4.71649e-05
0.000205721
-0.000221252
-0.0004509
2.31249e-05
-2.5689e-05
-0.000906283
7.11438e-05
0.000246097
-0.00128369
0.00108486
0.000737871
-0.00235045
0.00179363
0.00100619
-0.00316359
0.000109569
0.00110616
-0.003033
-0.00286168
0.00127907
-0.00198326
-0.00581916
0.00134589
-0.00953158
0.00143522
0.000807676
-0.0124146
0.000807676
0.000985134
-0.00980084
0.00125073
0.000731718
-0.00709172
0.00138626
0.000348531
-0.00478412
0.00140485
0.000330758
-0.0026605
0.00134461
0.000817978
-0.000773389
0.0011759
0.00138268
0.000122267
0.000877102
0.00143707
5.66558e-05
0.000614899
0.00108147
2.49996e-05
0.00039966
0.000672789
0.000205488
0.000205199
0.000392953
0.000340592
9.17353e-05
0.000128864
0.000387326
8.24757e-05
-0.000342879
0.000214391
0.00028047
-0.000784612
-5.01264e-05
0.000563
-0.000685633
9.19537e-05
0.000893918
-0.000177409
8.87316e-05
0.00119666
0.000159672
-0.00172607
0.00149856
-0.000193924
-0.00409316
0.00158508
-0.000202453
-0.0072115
0.00140087
-0.0110745
0.0013405
0.000276684
-0.012968
0.000276684
-8.03092e-05
-0.0103844
0.00094058
-0.000575484
-0.00782943
0.00123289
-0.000932943
-0.00581359
0.00138693
-0.000985556
-0.00416404
0.00155615
-0.000553306
-0.00283816
0.00163252
1.26374e-05
-0.00197963
0.00153595
0.000279094
-0.00152507
0.00131526
0.000278765
-0.0010945
0.00111984
0.000252804
-0.000716024
0.000947474
0.000447777
-0.000748187
0.000893799
0.000778849
-0.000853723
0.000909967
0.00104157
-0.00107707
0.00102874
0.00114124
-0.00136928
0.00121948
0.00142001
-0.00165123
0.0014644
0.00190768
-0.00218851
0.00178956
0.00176588
-0.0034399
0.00185563
0.00134362
-0.00532901
0.00165811
0.000715666
-0.00803996
0.00145641
-0.0116327
0.00127385
-6.91382e-05
-0.0128297
-6.91382e-05
-0.000697652
-0.0105115
0.000755545
-0.00125749
-0.00834828
0.00107868
-0.00156035
-0.00674071
0.00122998
-0.00154301
-0.00552965
0.00134827
-0.00122217
-0.00462276
0.00146376
-0.000740585
-0.00395033
0.0014891
-0.00028112
-0.00341536
0.00143082
0.00013049
-0.00285637
0.00135025
0.000485596
-0.00239884
0.00132771
0.00096616
-0.00254837
0.00131962
0.00150384
-0.00272283
0.00133143
0.00197012
-0.0029298
0.00138645
0.00230274
-0.00317752
0.00147561
0.00256002
-0.00348339
0.00157488
0.00270293
-0.0039829
0.00165149
0.00253129
-0.00488286
0.0016146
0.00204681
-0.00632238
0.00147785
0.00118359
-0.00853109
0.00135435
-0.0116218
0.00117265
-0.000297513
-0.0122347
-0.000297513
-0.00111757
-0.0102636
0.000572157
-0.00175188
-0.00854752
0.000833554
-0.00203903
-0.0073583
0.000904731
-0.00196996
-0.00651569
0.00091697
-0.00162152
-0.00592172
0.000950513
-0.00110225
-0.00545762
0.000988023
-0.000518974
-0.00501477
0.00101613
0.000107403
-0.00449812
0.00101537
0.000720097
-0.00408344
0.0010719
0.00133237
-0.00424007
0.00107942
0.00194357
-0.00440666
0.00107262
0.00248493
-0.00456414
0.00109298
0.00289943
-0.00472694
0.00113492
0.00317252
-0.00492456
0.00116808
0.00325605
-0.00525207
0.00118564
0.00304498
-0.00586023
0.00118843
0.00246896
-0.00690591
0.00115954
0.00144427
-0.00862619
0.00111979
-0.0111649
0.000987441
-0.000554342
-0.011126
-0.000554342
-0.00155398
-0.00950996
0.000246031
-0.00227569
-0.00823559
0.000409767
-0.00257123
-0.00742063
0.000357876
-0.00245786
-0.00687336
0.0002443
-0.0020238
-0.00650314
0.000147348
-0.00138011
-0.00620808
0.000106766
-0.000634757
-0.00589572
0.000135596
0.000139018
-0.0054989
0.000226997
0.000865147
-0.00519886
0.000389283
0.00157281
-0.00533296
0.000385219
0.00227555
-0.00544766
0.000338263
0.0029107
-0.00551848
0.000319182
0.00341748
-0.00556912
0.000335394
0.00374144
-0.00564348
0.000394952
0.00381672
-0.00581513
0.000487766
0.00355063
-0.00619498
0.000600839
0.00285673
-0.00691403
0.000702019
0.00165714
-0.00818814
0.000761524
-0.0102029
0.000695125
-0.000947027
-0.00923197
-0.000947027
-0.00216028
-0.00796495
-0.00033176
-0.00296894
-0.00712169
-0.000305247
-0.00326588
-0.00667725
-0.000446445
-0.00308748
-0.00641736
-0.000634409
-0.00254477
-0.00626461
-0.000781234
-0.00174959
-0.0061303
-0.000872977
-0.000811273
-0.00593396
-0.000900079
0.000156081
-0.00561973
-0.000846522
0.000992414
-0.00535821
-0.000676983
0.00183137
-0.00548091
-0.000691006
0.00266445
-0.0055543
-0.000726456
0.00341334
-0.00555415
-0.000713217
0.00401023
-0.00551285
-0.000653163
0.00439257
-0.00547394
-0.000551883
0.00448192
-0.00549474
-0.000409756
0.00417006
-0.00565132
-0.000231804
0.00335934
-0.00604386
-5.94682e-05
0.00194216
-0.00689832
0.000127366
-0.0084217
0.000160923
-0.00167026
-0.00589145
-0.00167026
-0.00316433
-0.00514297
-0.00132791
-0.00404352
-0.00478388
-0.00145863
-0.00431722
-0.0046969
-0.00170665
-0.00406257
-0.00470195
-0.00197006
-0.00338955
-0.00475023
-0.0021874
-0.00240418
-0.00478497
-0.00233071
-0.00119605
-0.00474052
-0.00240158
9.50441e-05
-0.0045726
-0.00233823
0.00119577
-0.00438041
-0.00207853
0.00228245
-0.00446248
-0.00210513
0.00330102
-0.00446575
-0.00210712
0.00417442
-0.00438976
-0.0020378
0.00484937
-0.00426952
-0.00191829
0.00527667
-0.00413851
-0.00176274
0.00538157
-0.00403071
-0.00156893
0.00504895
-0.00398893
-0.00132977
0.00413912
-0.00406841
-0.00106562
0.00248779
-0.00444125
-0.000805749
-0.00532988
-0.000604037
-0.00294573
-0.00294573
-0.00480189
-0.00328681
-0.00568969
-0.00389608
-0.00589869
-0.00448791
-0.00555107
-0.00504958
-0.00473793
-0.00556338
-0.00352617
-0.00599673
-0.00197796
-0.00628873
-0.000172898
-0.00637767
0.0016036
-0.00615691
0.00310491
-0.00596379
0.004363
-0.00572386
0.00536718
-0.00539394
0.0061138
-0.00501615
0.00657865
-0.00460337
0.00670631
-0.00415838
0.00639709
-0.00367972
0.00547567
-0.003147
0.0035488
-0.00251438
-0.00178108
0.00337355
-0.00543272
0.00567992
0.00547106
-0.00419502
0.00547106
0.0065189
-0.00295636
0.00483563
0.00655815
-0.00161037
0.00399545
0.00554837
-0.000177198
0.00308133
0.00355964
0.00124971
0.00211943
0.00129367
0.00194566
0.00125889
-0.00011846
0.00131138
0.000515001
-0.000272676
3.9101e-05
0.000138057
-6.17053e-05
-0.000309446
8.33558e-05
6.21387e-05
-0.000253035
0.000131258
0.00011307
-0.000219829
0.000214598
0.000163303
-0.000307763
0.000323352
-0.00068934
0.000382034
0.000812583
-0.00311275
0.00176426
0.00165541
-0.00558736
0.00161927
0.00200696
-0.00690283
0.000254096
0.00224105
-0.00667758
-0.00143646
0.00252653
-0.00463463
-0.00340523
0.00281263
-0.00606629
0.00304647
0.00193402
-0.00837265
0.00279546
0.00317726
-0.00668149
0.00317726
0.0037093
-0.00471494
0.00304508
0.00369069
-0.00260526
0.00260887
0.00305955
-0.000239492
0.00195001
0.00228012
0.00150276
0.00135892
0.00178617
0.00205482
0.000970293
0.00148946
0.00123907
0.000627166
0.00100168
0.000313244
0.000226529
0.000619256
-1.07655e-05
-5.96145e-05
0.000246733
6.74202e-05
-0.000172421
-0.000227792
0.00014841
-0.000114971
-0.000890252
7.2576e-05
0.000256426
-0.00152293
0.000468621
0.000792199
-0.00206033
0.00165397
0.00138559
-0.00305033
0.00194322
0.00167226
-0.00389575
0.000376502
0.00182918
-0.00372222
-0.00243923
0.00210831
-0.00247453
-0.0055565
0.00224946
-0.00936372
0.00225813
0.00125073
-0.00980084
0.000985134
0.00187852
-0.00793708
0.00187852
0.00193952
-0.00557699
0.00218732
0.00169273
-0.00309238
0.00213877
0.00160939
-0.000701442
0.0018899
0.0017246
0.00104552
0.00151792
0.00191386
0.0015271
0.00121557
0.00180549
0.00104596
0.000916376
0.00139309
0.00057099
0.000554316
0.00092159
0.000456263
0.000209668
0.000492536
0.000573882
1.4325e-05
2.48035e-06
0.000704393
1.6544e-05
-0.000671197
0.000640007
0.00038671
-0.00123427
0.000680554
0.000914129
-0.00128802
0.00119557
0.00140607
-0.00122586
0.00130022
0.0017775
-0.00126177
-0.000204823
0.00211579
-0.00140765
-0.00298838
0.00228012
-0.0010677
-0.00661365
0.00211807
-0.0108874
0.00179646
0.00094058
-0.0103844
-8.03092e-05
0.00117535
-0.00840662
0.00117535
0.000935163
-0.00587667
0.00177275
0.000541595
-0.00330772
0.00199583
0.000412964
-0.0011165
0.00209984
0.000713437
0.000389268
0.0019883
0.00104472
0.00097672
0.00175504
0.00101021
0.000934586
0.00146114
0.000740107
0.00085746
0.00110347
0.000503856
0.000867413
0.000772575
0.00043354
0.000924795
0.000613197
0.000421814
0.000991866
0.000634211
0.000271021
0.000928319
0.000891213
4.9334e-05
0.000794897
0.00132682
0.000124841
0.000780836
0.00180362
0.000477385
0.000449031
0.00228819
0.00043476
-0.000938323
0.00263175
-1.95541e-05
-0.00335127
0.00247531
-0.00024796
-0.00699518
0.00206635
-0.0113358
0.00147428
0.000755545
-0.0105115
-0.000697652
0.000748342
-0.00839222
0.000748342
0.000352178
-0.00586248
0.00146065
-4.33147e-05
-0.003442
0.00175975
-0.000242823
-0.00153994
0.00197121
-8.81022e-05
-0.00033606
0.00203437
0.000166195
0.000293972
0.00191755
0.000279122
0.000565181
0.0016873
0.000312358
0.000757677
0.0014168
0.000407264
0.000878682
0.00122153
0.000621512
0.000862856
0.00116731
0.000884733
0.000841037
0.00121903
0.00107649
0.000723206
0.0013998
0.00115269
0.000507179
0.00168712
0.0012708
0.000210219
0.00202738
0.00135898
-0.000353547
0.00236588
0.00111021
-0.00160132
0.00252636
0.000651211
-0.00376018
0.00234575
0.000165259
-0.00706235
0.00190746
-0.0111358
0.0011379
0.000572157
-0.0102636
-0.00111757
0.000375713
-0.00799933
0.000375713
-0.00011336
-0.00564268
0.00110282
-0.000427559
-0.00359611
0.00137304
-0.000524616
-0.00203742
0.0015115
-0.000454167
-0.00101183
0.00155583
-0.00028687
-0.000403641
0.00151834
-8.49422e-05
-4.89333e-05
0.00142832
0.000127666
0.000267677
0.00129277
0.000430408
0.000426985
0.00122086
0.000789679
0.000362163
0.00122084
0.00115638
0.000282008
0.00126494
0.00146588
0.00012983
0.00137685
0.00167172
-0.000106527
0.00154278
0.00176422
-0.000438142
0.00172394
0.00172454
-0.00103523
0.00190699
0.00145814
-0.00215752
0.00201102
0.000974547
-0.0040369
0.00191985
0.000370691
-0.00690395
0.00156525
-0.0104903
0.00071262
0.000246031
-0.00950996
-0.00155398
-0.000107777
-0.00729172
-0.000107777
-0.000654197
-0.00524096
0.000554471
-0.000927814
-0.0037188
0.000754181
-0.000940867
-0.0025808
0.000800734
-0.000772922
-0.00180726
0.000774835
-0.000513714
-0.00129822
0.00074213
-0.000235791
-0.000923047
0.000731784
5.2434e-05
-0.000566625
0.00077307
0.000380852
-0.000351604
0.000839451
0.00077808
-0.000469507
0.000819659
0.0012091
-0.000604513
0.000793754
0.00160572
-0.000751864
0.000804253
0.00191036
-0.000934982
0.000859206
0.00209453
-0.00119955
0.000972189
0.00209759
-0.00167839
0.00112787
0.00185325
-0.00256621
0.00125386
0.00132009
-0.00403539
0.00123366
0.000587381
-0.00636614
0.00095642
-0.00938532
0.000177574
-0.00033176
-0.00796495
-0.00216028
-0.000971942
-0.00601136
-0.000971942
-0.00156333
-0.00448083
-0.000473997
-0.00184166
-0.00345047
-0.000436446
-0.00175338
-0.00274071
-0.000562791
-0.0014324
-0.00228881
-0.000620666
-0.000962242
-0.00196432
-0.00067704
-0.000443548
-0.00166742
-0.000674407
1.75484e-05
-0.00132701
-0.000547239
0.000434371
-0.00111676
-0.000328654
0.000942794
-0.00127471
-0.000394231
0.0015144
-0.00143641
-0.000466177
0.00205709
-0.00154619
-0.00046158
0.00250389
-0.00164437
-0.000390574
0.00280166
-0.00179334
-0.000255866
0.00284304
-0.00209316
-3.6373e-05
0.00258124
-0.00264363
0.000107417
0.00193476
-0.00364058
0.000192194
0.000963092
-0.00531729
5.0178e-05
-0.00769051
-0.000570802
-0.00132791
-0.00514297
-0.00316433
-0.00244977
-0.00376764
-0.00244977
-0.00313175
-0.00291773
-0.00233975
-0.00333186
-0.00244725
-0.00250976
-0.00310713
-0.00215631
-0.0027792
-0.00257409
-0.00198083
-0.00302843
-0.00184655
-0.0018335
-0.00318907
-0.000970818
-0.00162283
-0.0033219
-0.000105245
-0.00128516
-0.00324566
0.000626106
-0.0010154
-0.00291125
0.00145338
-0.0013121
-0.00289502
0.00225618
-0.00152021
-0.00282612
0.00295942
-0.0016148
-0.00267245
0.00352491
-0.00165178
-0.00247639
0.00391826
-0.00168087
-0.00226857
0.00406476
-0.00176207
-0.00204653
0.00384411
-0.00197491
-0.00177785
0.00311494
-0.0024224
-0.00155463
0.00177874
-0.00331699
-0.00146986
-0.00487368
-0.00164212
-0.00328681
-0.00480189
-0.00517063
-0.00517063
-0.00606343
-0.00592102
-0.00626955
-0.00672905
-0.00594369
-0.00753175
-0.00517988
-0.00830802
-0.00402168
-0.00898843
-0.00249572
-0.00943753
-0.000592009
-0.00956655
0.00148595
-0.00925027
0.00315892
-0.00894888
0.00444705
-0.00853221
0.00542219
-0.00798388
0.00612275
-0.00736849
0.00655158
-0.00671309
0.0066691
-0.00603798
0.0063707
-0.00535623
0.0054396
-0.00463831
0.00348537
-0.00387715
-0.00316939
0.0029271
-0.0038555
0.00660832
0.00483563
-0.00295636
0.0065189
0.00583717
-0.00200309
0.00583717
0.00588217
-0.000854916
0.00480537
0.00492478
0.000448347
0.00359038
0.00313229
0.00159602
0.00231592
0.00115938
0.00201879
0.00121305
6.37139e-05
0.00110803
0.000502648
-3.94419e-05
-4.72393e-05
0.00028844
9.86049e-05
-0.000321174
0.000266487
0.000145732
-0.000255784
0.00033992
0.000100941
-0.000199375
0.000458765
1.63832e-05
-0.000253456
0.000661367
-0.000985508
0.000508444
0.00130606
-0.00333044
0.0017654
0.002235
-0.00563117
0.00151442
0.00279329
-0.00678813
0.000129237
0.00326877
-0.00651026
-0.00145709
0.00370575
-0.00448309
-0.00330536
0.00409082
-0.00568849
0.00425189
0.00181854
-0.00595887
0.00308029
0.00304508
-0.00471494
0.0037093
0.00367242
-0.00325777
0.00367242
0.00372543
-0.00148032
0.00318126
0.00322245
0.000510619
0.00239072
0.00252743
0.00193625
0.00171374
0.00203541
0.00220683
0.00127428
0.00162524
0.00122208
0.000923291
0.00110379
0.00026445
0.00043629
0.000698995
-9.5146e-05
0.000119147
0.000270555
-1.50032e-05
1.52317e-05
-0.000300417
0.000122726
0.000133891
-0.00106682
0.000102342
0.000667025
-0.00178644
0.000636123
0.00138415
-0.00244518
0.00183449
0.00197526
-0.00344103
0.00193104
0.00225152
-0.00424572
0.000328751
0.00243436
-0.00400724
-0.0023369
0.00274966
-0.00265067
-0.00527528
0.00286281
-0.00869778
0.00261675
0.00138626
-0.00709172
0.000731718
0.00218732
-0.00557699
0.00193952
0.0024831
-0.00384933
0.0024831
0.00249798
-0.0018288
0.00247236
0.00245198
0.000240397
0.00220613
0.00235339
0.00174182
0.00181094
0.00229004
0.00197311
0.00151265
0.00200198
0.00125767
0.00116884
0.00152348
0.000583713
0.000713557
0.00101303
0.000327745
0.000297217
0.00051923
0.000416662
7.64616e-05
-7.42499e-05
0.000601749
0.000130995
-0.000876583
0.000641139
0.00065024
-0.00154189
0.000891953
0.00132361
-0.00178755
0.00162763
0.00185859
-0.00202311
0.00177265
0.00217146
-0.00222296
0.000222215
0.00242218
-0.00218761
-0.00268858
0.00259645
-0.00152356
-0.00617537
0.00235412
-0.0100571
0.00163224
0.00123289
-0.00782943
-0.000575484
0.00177275
-0.00587667
0.000935163
0.00183089
-0.0039656
0.00183089
0.00166042
-0.00186714
0.00220464
0.0015798
0.000135303
0.00228556
0.00169611
0.00149109
0.00212272
0.00175411
0.00179078
0.00187937
0.00153073
0.00141258
0.0015296
0.00113896
0.00101395
0.00106501
0.000780075
0.000830743
0.000628461
0.000525964
0.000889729
0.000394238
0.000272997
0.0010546
0.000434321
-0.000165171
0.00113763
0.000832878
-0.000619536
0.00122086
0.00145227
-0.000715481
0.00150871
0.00201848
-0.00060209
0.0014623
0.00248515
-0.000737033
0.000158092
0.00283082
-0.00100518
-0.00265504
0.00270991
-0.000871197
-0.00636481
0.0021218
-0.0104396
0.000985555
0.00107868
-0.00834828
-0.00125749
0.00146065
-0.00586248
0.000352178
0.00137456
-0.00379342
0.00137456
0.00107906
-0.00170178
0.00188988
0.000907966
9.62775e-05
0.00218133
0.000939611
0.00129168
0.00220212
0.000980914
0.00163583
0.00203119
0.000873567
0.00149441
0.00171281
0.000695832
0.00130074
0.00130774
0.00056926
0.00121279
0.00096606
0.000555295
0.00124822
0.000822775
0.000576621
0.00136079
0.000891505
0.000510489
0.00142169
0.00118188
0.00035736
0.00142237
0.00163873
0.000313291
0.00143185
0.00214829
0.000338936
0.00117046
0.00263207
0.000128028
-3.05102e-05
0.00292587
-0.000314879
-0.00251326
0.00264688
-0.00047518
-0.00615146
0.00185441
-0.0102238
0.000446918
0.000833554
-0.00854752
-0.00175188
0.00110282
-0.00564268
-0.00011336
0.000943354
-0.00347449
0.000943354
0.000641296
-0.00147699
0.0014503
0.000458438
4.34415e-05
0.00174719
0.000422699
0.00105344
0.00182981
0.000438414
0.00140677
0.00173167
0.000432305
0.00141018
0.00151865
0.00042002
0.00135367
0.00125213
0.000461057
0.0013369
0.0010557
0.000597613
0.00134312
0.000989388
0.000772628
0.00139367
0.00105704
0.000900403
0.00141588
0.00125488
0.000937678
0.00137599
0.00155189
0.000926915
0.00125888
0.00190767
0.000855772
0.00086955
0.00227904
0.000580669
-0.000245864
0.00250147
0.000105373
-0.00238398
0.00226586
-0.000158443
-0.00573176
0.00140936
-0.00956637
-0.000103233
0.000409767
-0.00823559
-0.00227569
0.000554471
-0.00524096
-0.000654197
0.000343157
-0.00305187
0.000343157
0.000139357
-0.00134341
0.000824401
1.41483e-05
-2.09012e-05
0.000990283
5.68358e-05
0.000704733
0.00108085
0.000144743
0.00103684
0.00102415
0.000215345
0.00115454
0.000916826
0.000269695
0.00125029
0.000822101
0.000355388
0.001315
0.00077566
0.000549181
0.00124517
0.000723809
0.000803814
0.00119026
0.000742534
0.00103983
0.00114241
0.000841693
0.00119879
0.00106674
0.0010095
0.00126988
0.000919431
0.00124054
0.00121279
0.000547794
0.00150671
0.000953238
-0.000410404
0.00167795
0.000553826
-0.00225779
0.00150688
0.000191407
-0.00511474
0.000701818
-0.00852786
-0.000669522
-0.000305247
-0.00712169
-0.00296894
-0.000473997
-0.00448083
-0.00156333
-0.000743424
-0.00251302
-0.000743424
-0.000873225
-0.00122558
-0.000424479
-0.000741384
-0.000402998
-0.00031254
-0.000442237
3.21112e-05
-0.000247196
-0.000159007
0.000374771
-0.000298201
6.11791e-05
0.000618661
-0.000358719
0.000169038
0.000937025
-0.00034184
0.000244741
0.00114547
-0.000234829
0.000473447
0.00089608
-0.000273847
0.000807183
0.000655654
-0.000265315
0.00115126
0.000528218
-0.000191473
0.00144155
0.000453963
-6.80883e-05
0.00163703
0.000348512
0.000119562
0.00178464
1.9785e-05
0.000344021
0.00165693
-0.000603162
0.000427874
0.0012809
-0.00193583
0.000246257
0.000705758
-0.00411769
-0.000371737
-0.00700892
-0.00138399
-0.00145863
-0.00478388
-0.00404352
-0.00233975
-0.00291773
-0.00313175
-0.00271897
-0.00175458
-0.00271897
-0.00272822
-0.00105478
-0.00267132
-0.00242288
-0.000579846
-0.00290769
-0.00195107
-0.000251735
-0.00321639
-0.00136888
3.21209e-05
-0.00342862
-0.000747503
0.000274652
-0.00359928
-0.000146285
0.000634998
-0.00354485
0.00036064
0.000926562
-0.00319927
0.000932303
0.000542669
-0.00311327
0.00148083
0.000240441
-0.00295944
0.00198871
7.48021e-05
-0.00272692
0.00246744
-4.39041e-05
-0.00245726
0.00290457
-0.000170097
-0.00218709
0.00317085
-0.000370252
-0.00192277
0.00318093
-0.000742383
-0.00164872
0.00276285
-0.00141152
-0.00166086
0.00170606
-0.00260823
-0.00192252
-0.00454219
-0.0024028
-0.00389608
-0.00568969
-0.00592102
-0.00606343
-0.00679831
-0.00679831
-0.00694415
-0.007638
-0.00657114
-0.00848461
-0.00577718
-0.00935372
-0.00456178
-0.0101717
-0.00292821
-0.0107965
-0.000830029
-0.0110297
0.00155764
-0.0107114
0.00341987
-0.0102684
0.00477498
-0.00964689
0.0057495
-0.00888361
0.00642433
-0.00808724
0.0068448
-0.00730366
0.00699374
-0.00655717
0.00676532
-0.00587021
0.00587641
-0.00516092
0.00385546
-0.00446443
-0.00385612
0.00242433
-0.00236637
0.00655036
0.00399545
-0.00161037
0.00655815
0.00480537
-0.000854916
0.00588217
0.00477492
6.0915e-05
0.00477492
0.00379106
0.00121258
0.00336168
0.00217904
0.00196231
0.00196565
0.000688846
0.0018028
0.000900483
0.000135259
0.000528776
0.000527472
0.000202552
-0.000249565
0.00047071
0.000269012
-0.000331598
0.000531628
0.000245218
-0.000247256
0.000610973
0.00013
-0.000171498
0.00074548
-5.60184e-06
-0.000217662
0.00101463
-0.000862145
0.000410091
0.00175253
-0.00299459
0.0016364
0.00273111
-0.00517489
0.00149331
0.00348031
-0.00627241
0.000212423
0.00415388
-0.00599266
-0.00128287
0.00470887
-0.00408584
-0.00290851
0.00509252
-0.00490948
0.00507553
0.00159537
-0.00376245
0.002881
0.00260887
-0.00260526
0.00369069
0.00318126
-0.00148032
0.00372543
0.0031912
4.10518e-05
0.0031912
0.00287215
0.00142269
0.00249967
0.00236758
0.00230249
0.00187814
0.00197212
0.00199225
0.00148031
0.00149511
0.00087147
0.0010576
0.00104381
4.56414e-05
0.000592381
0.000687713
-0.000207656
0.000351295
0.000249868
-6.64388e-05
0.000272253
-0.00035136
0.000123155
0.000440455
-0.00109983
0.000133939
0.00106388
-0.00183334
0.000619671
0.00190808
-0.0025181
0.0017543
0.00254215
-0.00346707
0.00186985
0.00282398
-0.00417552
0.000355571
0.00299968
-0.00389462
-0.00204189
0.00322778
-0.00253955
-0.00458217
0.00318139
-0.00743527
0.00260299
0.00140485
-0.00478412
0.000348531
0.00213877
-0.00309238
0.00169273
0.00247236
-0.0018288
0.00249798
0.00267259
-0.000359414
0.00267259
0.00267715
0.00119064
0.00243363
0.00258176
0.0021129
0.00209594
0.00238909
0.00191488
0.00178268
0.00199354
0.00107681
0.00135905
0.00148318
0.000406137
0.000863414
0.000965705
0.000143114
0.000463918
0.000439919
0.000259263
0.000276542
-0.000203049
0.000487824
0.000409286
-0.00102675
0.000597633
0.00101024
-0.00174107
0.000896909
0.00176069
-0.00212239
0.0016775
0.00231671
-0.00247174
0.00184299
0.00254768
-0.00267875
0.00033235
0.00265242
-0.00247722
-0.00231226
0.00266529
-0.00163222
-0.00529713
0.00222408
-0.00855911
0.00112387
0.00138693
-0.00581359
-0.000932943
0.00199583
-0.00330772
0.000541595
0.00220464
-0.00186714
0.00166042
0.0022309
-0.000411944
0.0022309
0.00227296
0.00103366
0.00240049
0.00229488
0.0019292
0.00228451
0.00216429
0.00189504
0.00202979
0.0018095
0.00134136
0.00161984
0.00135253
0.000817913
0.00111021
0.000915498
0.000560209
0.000648396
0.000538321
0.000617099
0.000413575
0.000108972
0.000838213
0.000513273
-0.000485522
0.00101483
0.00101016
-0.00104836
0.00121861
0.0016934
-0.00128633
0.00166793
0.00226601
-0.00134449
0.00176898
0.00261733
-0.00148744
0.000505772
0.00280034
-0.00150955
-0.00216154
0.0025813
-0.00108542
-0.00536763
0.00176817
-0.00892153
0.000262563
0.00122998
-0.00674071
-0.00156035
0.00175975
-0.003442
-4.33147e-05
0.00188988
-0.00170178
0.00107906
0.00179954
-0.000231264
0.00179954
0.00173835
0.00108278
0.0021934
0.0017227
0.0018847
0.00226227
0.0016147
0.00194783
0.0020864
0.00136162
0.00158679
0.00172045
0.00104475
0.00119164
0.00125088
0.000756685
0.000975397
0.000838933
0.000548559
0.00099727
0.000650728
0.000355341
0.0011733
0.000749633
7.67074e-05
0.00134819
0.00112714
-0.000237237
0.00149741
0.00167387
-0.000389799
0.00172906
0.00223971
-0.000411407
0.00172645
0.0026962
-0.000568264
0.000677297
0.0029112
-0.000794281
-0.00179764
0.002509
-0.000678951
-0.00506424
0.00143569
-0.00886371
-0.000289846
0.000904731
-0.0073583
-0.00203903
0.00137304
-0.00359611
-0.000427559
0.0014503
-0.00147699
0.000641296
0.00133524
-1.1401e-06
0.00133524
0.0012257
0.0011844
0.00175511
0.00119544
0.00183051
0.00191426
0.00113376
0.00191703
0.00182415
0.000990646
0.0016879
0.00156066
0.000787045
0.00143345
0.00121392
0.000593003
0.00130887
0.000916273
0.000498742
0.00129154
0.000789381
0.000465072
0.00138037
0.000883633
0.000419243
0.00149739
0.00115149
0.000330263
0.00160104
0.00153723
0.000274968
0.00170607
0.00198595
0.000254949
0.00160574
0.00241977
0.000100111
0.000709379
0.00262422
-0.000244796
-0.001398
0.00221112
-0.00028926
-0.00459724
0.000986827
-0.00851846
-0.000737741
0.000357876
-0.00742063
-0.00257123
0.000754181
-0.0037188
-0.000927814
0.000824401
-0.00134341
0.000139357
0.000707912
0.000231834
0.000707912
0.000679963
0.00112954
0.00107309
0.000748127
0.00159753
0.00124566
0.000797753
0.00167426
0.00121729
0.00074967
0.00158868
0.00106413
0.00059127
0.00154937
0.000864577
0.000401899
0.00157038
0.000703522
0.000358814
0.0014505
0.000607929
0.000431016
0.00138032
0.000670374
0.000542572
0.00138179
0.000845732
0.000630393
0.00141979
0.00110291
0.000701594
0.00145673
0.00141867
0.000740998
0.00132603
0.00174701
0.000618937
0.000613768
0.00189562
0.000327606
-0.00113573
0.00153594
0.000182343
-0.00406178
0.000311617
-0.00780646
-0.00119917
-0.000446445
-0.00667725
-0.00326588
-0.000436446
-0.00345047
-0.00184166
-0.000424479
-0.00122558
-0.000873225
-0.000295388
-2.63521e-05
-0.000295388
-0.000179108
0.000794688
-9.39679e-05
4.83481e-05
0.00114498
-2.20982e-05
0.000279684
0.00126704
-0.000122318
0.000405414
0.00139201
-0.00028778
0.000350025
0.00167096
-0.000408038
0.000174326
0.0018823
-0.000371057
0.000220141
0.00153908
-0.000408254
0.000438796
0.00121405
-0.00031771
0.000715224
0.00105878
-0.000144902
0.000964168
0.0010112
9.15539e-05
0.00118038
0.0010056
0.000354473
0.00134465
0.000892789
0.000612983
0.00138956
0.000292794
0.000703931
0.00120688
-0.00100306
0.000296272
0.000782593
-0.00334503
-0.000664215
-0.00658907
-0.00181879
-0.00170665
-0.0046969
-0.00431722
-0.00250976
-0.00244725
-0.00333186
-0.00267132
-0.00105478
-0.00272822
-0.00260049
-0.000168034
-0.00260049
-0.00227322
0.000308565
-0.00274884
-0.0018584
0.000567081
-0.00305332
-0.00134982
0.000774162
-0.00344432
-0.000781014
0.0010485
-0.00382458
-0.000190255
0.00150687
-0.00397154
0.000293816
0.0018871
-0.00368815
0.000854742
0.0013383
-0.00347342
0.00134931
0.000894576
-0.00313454
0.00178173
0.000643074
-0.00274363
0.00217497
0.000502783
-0.00234209
0.00253944
0.000411754
-0.00195772
0.00284254
0.00028684
-0.00161993
0.00295465
-3.84431e-05
-0.0014296
0.00277229
-0.000872375
-0.0016092
0.00184937
-0.00223338
-0.00211125
-0.00442424
-0.00271826
-0.00448791
-0.00589869
-0.00672905
-0.00626955
-0.007638
-0.00694415
-0.00772202
-0.00772202
-0.00729503
-0.00860304
-0.00648015
-0.00960153
-0.00525145
-0.0106263
-0.00349607
-0.0115033
-0.00107129
-0.0119477
0.00182121
-0.0117168
0.0039441
-0.011053
0.00535986
-0.0101681
0.0062831
-0.00916378
0.00687508
-0.00817645
0.00724467
-0.00726151
0.00741676
-0.00644243
0.00726466
-0.00575656
0.006383
-0.00515164
0.00424923
-0.00456405
-0.00403114
0.00189434
-0.000699
0.00535502
0.00308133
-0.000177198
0.00554837
0.00359038
0.000448347
0.00492478
0.00336168
0.00121258
0.00379106
0.00242588
0.00187162
0.00242588
0.00116623
0.00201225
0.00121309
0.00038275
0.00106164
0.000622362
0.000306653
-1.68592e-05
0.000620423
0.000401262
-0.000369906
0.000746009
0.000374672
-0.000347014
0.000905234
0.000278049
-0.000255992
0.00096359
0.000133691
-0.000154406
0.00104424
1.35545e-05
-0.000174876
0.00130963
-0.000538244
0.000226274
0.00207806
-0.00226601
0.00138722
0.00307173
-0.0043116
0.00154349
0.00398246
-0.00541832
0.000473683
0.00478693
-0.00522194
-0.000909714
0.00542221
-0.00355224
-0.00230248
0.0057253
-0.00395443
0.00547772
0.00125657
-0.00133367
0.00225911
0.00195001
-0.000239492
0.00305955
0.00239072
0.000510619
0.00322245
0.00249967
0.00142269
0.00287215
0.00233041
0.00221016
0.00233041
0.0020679
0.00226854
0.00188439
0.00171493
0.00138446
0.00151046
0.00129748
0.000371257
0.00108693
0.000943616
-0.000217347
0.00079368
0.0005871
-0.000305626
0.000666423
0.000126941
-0.000104658
0.000581073
-0.000454116
0.000134778
0.000732315
-0.00108149
0.000171515
0.00134485
-0.00172884
0.000510189
0.00227151
-0.00234595
0.00151339
0.00303312
-0.00316098
0.00182439
0.00335813
-0.00375694
0.000573788
0.00349555
-0.00351188
-0.00147807
0.00355108
-0.00228023
-0.00359415
0.00324143
-0.00595395
0.00232229
0.00134461
-0.0026605
0.000330758
0.0018899
-0.000701442
0.00160939
0.00220613
0.000240397
0.00245198
0.00243363
0.00119064
0.00267715
0.00253998
0.00199746
0.00253998
0.00249101
0.00215146
0.00226199
0.00223292
0.00153037
0.00189487
0.00180112
0.000719379
0.00144272
0.00129119
0.000154515
0.00100148
0.000761702
-6.80396e-07
0.000688457
0.000202661
0.000188014
0.000542905
-0.000436549
0.000454617
0.000728647
-0.00116316
0.00058002
0.00132833
-0.001839
0.000826737
0.00211997
-0.00226974
0.00153167
0.00272917
-0.00260304
0.00178109
0.0029243
-0.00275299
0.000521339
0.00285483
-0.00245123
-0.00169414
0.0025796
-0.00157552
-0.00410863
0.00186286
-0.00691637
0.00051077
0.00155615
-0.00416404
-0.000985556
0.00209984
-0.0011165
0.000412964
0.00228556
0.000135303
0.0015798
0.00240049
0.00103366
0.00227296
0.00250108
0.00179628
0.00250108
0.00248035
0.00205239
0.00240431
0.00224678
0.00168945
0.00210427
0.00183052
0.00108885
0.00166663
0.00132379
0.000596335
0.00117511
0.000809155
0.000403406
0.000758946
0.000329102
0.000512388
0.00056925
-0.000191989
0.000749121
0.00073985
-0.000797316
0.000938204
0.00125729
-0.00136266
0.00114426
0.0019412
-0.00167454
0.00160466
0.0025049
-0.00180006
0.00178097
0.00274297
-0.00187155
0.000703383
0.00268979
-0.00169934
-0.00154439
0.00225933
-0.00113983
-0.00413779
0.00123781
-0.00745258
-0.000341059
0.00134827
-0.00552965
-0.00154301