/*--------------------------------*- C++ -*----------------------------------*\
  =========                 |
  \\      /  F ield         | OpenFOAM: The Open Source CFD Toolbox
   \\    /   O peration     | Website:  https://openfoam.org
    \\  /    A nd           | Version:  8
     \\/     M anipulation  |
\*---------------------------------------------------------------------------*/
FoamFile
{
    version     2.0;
    format      ascii;
    class       volVectorField;
    location    "1000";
    object      U;
}
// * * * * * * * * * * * * * * * * * * * * * * * * * * * * * * * * * * * * * //

dimensions      [0 1 -1 0 0 0 0];

internalField   nonuniform List<vector> 
4000
(
(0.00878706 -0.027008 0.00878706)
(0.0185343 -0.0205902 0.00869317)
(0.0248054 -0.0152178 0.00787615)
(0.0269996 -0.0104008 0.00685093)
(0.0253815 -0.00558968 0.0057047)
(0.0188585 -0.00102689 0.00444089)
(0.00757197 0.00320026 0.00310906)
(-0.00406473 0.00180926 0.00108635)
(-0.00349142 -0.00166313 -0.00011277)
(-0.0015975 -0.00146673 -0.00017699)
(-0.000537075 -0.00102155 -0.00013698)
(0.000429853 -0.00096197 -4.77844e-05)
(0.000639172 -0.00142514 -7.05113e-05)
(0.00427292 -0.000910833 0.000249309)
(-0.00190117 0.0038949 0.00252698)
(-0.016924 0.00222742 0.00324216)
(-0.0258501 -0.00243523 0.003297)
(-0.0271846 -0.00735096 0.00359025)
(-0.0219342 -0.0136766 0.00387824)
(-0.0105742 -0.0222991 0.00431998)
(0.00389249 -0.0374872 0.00389249)
(0.00953457 -0.0282813 0.00450278)
(0.0117751 -0.0196044 0.00442247)
(0.0121193 -0.0114128 0.00414151)
(0.0105793 -0.00173122 0.00362559)
(0.00848027 0.0064268 0.00262176)
(0.00469721 0.00851316 0.00188765)
(0.00289822 0.00388925 0.000684337)
(0.00323996 -0.000300292 -0.000141281)
(0.00165755 -0.00110856 -0.000511371)
(0.00093764 -0.000719498 -0.000710329)
(0.000433934 -0.000687098 -0.000711756)
(-0.000846353 -0.00156864 -0.000308013)
(-0.00310751 -0.000245347 0.0004662)
(-0.00293143 0.00608527 0.00206533)
(-0.00845596 0.00911502 0.00309372)
(-0.0125587 0.0041746 0.00341186)
(-0.0122617 -0.00717717 0.00373017)
(-0.0106153 -0.0183175 0.00363853)
(-0.00303361 -0.0326938 0.0038914)
(0.00167651 -0.0475631 0.00167651)
(0.00426831 -0.0372925 0.00276186)
(0.00316013 -0.0266867 0.00308287)
(0.00227198 -0.0172176 0.00334871)
(0.000518517 -0.0076165 0.00369743)
(0.00254787 0.0019878 0.00368509)
(0.00464229 0.00555548 0.00279522)
(0.00577715 0.00298093 0.00207211)
(0.00546035 0.00113718 0.00151536)
(0.00363857 0.00116735 0.000990506)
(0.00199628 0.00205412 0.000704311)
(0.00111595 0.00259356 0.000719694)
(-0.000246707 0.0019598 0.00124507)
(-0.00273812 0.00124124 0.002033)
(-0.00277348 0.00408871 0.00285978)
(-0.00331584 0.00680355 0.00379142)
(0.00141087 -0.00284778 0.00470211)
(0.000207068 -0.0138087 0.00429921)
(-0.0017734 -0.0266259 0.00354159)
(0.00089771 -0.0423925 0.00356408)
(0.000551737 -0.0514177 0.000551737)
(0.00126465 -0.0408627 0.00189585)
(-0.00189352 -0.029902 0.00231317)
(-0.00308789 -0.021079 0.00271025)
(-0.0041817 -0.0136678 0.0033248)
(-0.00328411 -0.00786577 0.00402849)
(-0.000931113 -0.00433368 0.00429433)
(0.000963518 -0.00249601 0.00396114)
(0.00126166 -0.000882711 0.00369874)
(0.00106504 0.000772501 0.00346634)
(0.00118227 0.0010966 0.00338481)
(0.00239937 0.000898519 0.00341407)
(0.00360483 -0.000144234 0.00361933)
(0.00438713 -0.00175046 0.003943)
(0.0050676 -0.00321386 0.00434456)
(0.00680541 -0.00576603 0.00485048)
(0.0076328 -0.0106013 0.00453375)
(0.00682113 -0.0188712 0.00377044)
(0.00364731 -0.0306191 0.00324799)
(0.00302547 -0.0458554 0.00324)
(-0.000215306 -0.0521741 -0.000215306)
(-0.000622804 -0.0421706 0.00120533)
(-0.00464366 -0.0327395 0.0013606)
(-0.00583312 -0.0255244 0.00144397)
(-0.00649725 -0.0199309 0.00152911)
(-0.00569785 -0.0156274 0.00176999)
(-0.00400329 -0.0125677 0.00201091)
(-0.00199768 -0.0104435 0.00218678)
(-0.000378324 -0.00823219 0.00240313)
(0.00135374 -0.00639838 0.002855)
(0.00277611 -0.00699766 0.00283125)
(0.00495163 -0.00771688 0.00276054)
(0.00700709 -0.00862061 0.0027333)
(0.00863968 -0.00967261 0.00275294)
(0.00984766 -0.0108826 0.00279239)
(0.0107186 -0.012958 0.00280027)
(0.010703 -0.0172222 0.00268039)
(0.00981014 -0.0237922 0.00244918)
(0.00617309 -0.0335705 0.00244461)
(0.00424599 -0.0469748 0.00277657)
(-0.000978645 -0.0508389 -0.000978645)
(-0.00197728 -0.0422204 0.000395701)
(-0.00655176 -0.0344546 0.000122268)
(-0.0078745 -0.028919 -0.000217379)
(-0.00833056 -0.0249245 -0.000593202)
(-0.00737906 -0.0220515 -0.000814543)
(-0.00556178 -0.0198657 -0.00093545)
(-0.00323431 -0.017921 -0.000951653)
(-0.00100058 -0.0157339 -0.000811991)
(0.00189708 -0.0138942 -0.000240211)
(0.00401509 -0.0145138 -0.000219494)
(0.00657477 -0.0152183 -0.000284724)
(0.00893462 -0.015951 -0.000258063)
(0.0108911 -0.0167638 -0.000118925)
(0.0123148 -0.0177614 0.000105323)
(0.0130968 -0.0193789 0.000368307)
(0.01289 -0.0223089 0.000643098)
(0.0117418 -0.0271823 0.000924833)
(0.00756468 -0.0349904 0.00137273)
(0.0050486 -0.0462561 0.00210333)
(-0.00193976 -0.0474398 -0.00193976)
(-0.00341448 -0.0403417 -0.000764536)
(-0.00852598 -0.0344471 -0.00145228)
(-0.0100792 -0.0305754 -0.00218111)
(-0.0104043 -0.0279393 -0.00290155)
(-0.00919297 -0.0261421 -0.00346888)
(-0.0069495 -0.0247351 -0.00388763)
(-0.00404552 -0.0233195 -0.00413656)
(-0.00116574 -0.0215599 -0.00419412)
(0.00231744 -0.020103 -0.00365851)
(0.00478257 -0.0206354 -0.00354738)
(0.0077262 -0.0211461 -0.00349927)
(0.0104682 -0.0215267 -0.00332017)
(0.0127982 -0.0218638 -0.00300278)
(0.0145156 -0.0223191 -0.00257637)
(0.0153964 -0.023222 -0.00204643)
(0.0150933 -0.0250853 -0.0014391)
(0.0135856 -0.0284964 -0.000753535)
(0.00876972 -0.0343962 8.7423e-05)
(0.0058429 -0.04342 0.00118424)
(-0.00344722 -0.0407602 -0.00344722)
(-0.00557698 -0.0353164 -0.00267002)
(-0.0111576 -0.0313849 -0.00360847)
(-0.0129334 -0.02908 -0.00464417)
(-0.0130753 -0.0276079 -0.00562369)
(-0.0115195 -0.0266914 -0.0064197)
(-0.00875655 -0.025983 -0.00702922)
(-0.00516903 -0.0251449 -0.00741969)
(-0.00152588 -0.0239077 -0.00753162)
(0.00267867 -0.0229215 -0.00695041)
(0.00558861 -0.0232699 -0.00677511)
(0.0090413 -0.0234502 -0.00661452)
(0.0122723 -0.0234173 -0.00630821)
(0.015007 -0.0232999 -0.00585682)
(0.0170194 -0.0232747 -0.00527685)
(0.01805 -0.0235883 -0.00456463)
(0.0177213 -0.024578 -0.00374808)
(0.015868 -0.0266516 -0.00278379)
(0.0104315 -0.0306478 -0.00162635)
(0.00699671 -0.0373369 -0.000194819)
(-0.00600371 -0.0299871 -0.00600371)
(-0.00944934 -0.0261153 -0.00595741)
(-0.0153132 -0.0239925 -0.00724285)
(-0.0172281 -0.0232215 -0.00861557)
(-0.0171483 -0.0229882 -0.00990296)
(-0.01519 -0.0230311 -0.0109965)
(-0.0117843 -0.0230703 -0.0118512)
(-0.00729215 -0.0228086 -0.0124246)
(-0.00256539 -0.0220697 -0.0125733)
(0.00311808 -0.0214417 -0.0117857)
(0.00703389 -0.0216126 -0.0115204)
(0.0112697 -0.0215574 -0.0111922)
(0.0151007 -0.0212069 -0.0106664)
(0.0182337 -0.020692 -0.00998989)
(0.0204852 -0.0201581 -0.00919232)
(0.0216304 -0.0197788 -0.00826412)
(0.0213005 -0.0197844 -0.00718026)
(0.0191798 -0.0204852 -0.00592317)
(0.0133478 -0.0226976 -0.0044191)
(0.00901239 -0.0273034 -0.00255597)
(-0.0100511 -0.018227 -0.0100511)
(-0.0159366 -0.0144409 -0.0116643)
(-0.0218857 -0.0126039 -0.014045)
(-0.0237138 -0.011829 -0.0162684)
(-0.0233064 -0.0113672 -0.0183622)
(-0.0208852 -0.0109918 -0.0202757)
(-0.016743 -0.0105156 -0.0219188)
(-0.0111639 -0.00978573 -0.0231169)
(-0.0051012 -0.00871217 -0.023673)
(0.0034837 -0.0077259 -0.0228904)
(0.00975485 -0.0087211 -0.0220124)
(0.0151232 -0.00942219 -0.0210296)
(0.0196535 -0.00981733 -0.0197937)
(0.0231841 -0.00999178 -0.01841)
(0.0256422 -0.01005 -0.0169121)
(0.0268951 -0.0101006 -0.0152978)
(0.0266578 -0.0102933 -0.0135519)
(0.0245386 -0.0108625 -0.011607)
(0.0186468 -0.0125169 -0.00923768)
(0.0124392 -0.0164539 -0.00617589)
(0.00869317 -0.0205902 0.0185343)
(0.0177708 -0.0160022 0.0177708)
(0.0243502 -0.0118564 0.0157451)
(0.0268881 -0.00772115 0.0130489)
(0.0257119 -0.00361638 0.0101512)
(0.0197541 0.000447556 0.00716332)
(0.0101784 0.00406456 0.00456643)
(0.000646085 0.00346663 0.00205783)
(-0.00176216 -0.000783813 0.000283059)
(-0.000527956 -0.00141094 3.85868e-05)
(5.41619e-05 -0.00101038 0.000171156)
(0.000501187 -0.00090754 0.000443121)
(0.000334645 -0.00137312 0.00066657)
(0.00141781 0.000682234 0.00229108)
(-0.00709792 0.00440819 0.00523199)
(-0.0194884 0.00184234 0.0061197)
(-0.0272838 -0.00264065 0.00663828)
(-0.0282164 -0.00745809 0.00756372)
(-0.0226905 -0.0136176 0.00856203)
(-0.0115705 -0.0220266 0.00954112)
(0.00450278 -0.0282813 0.00953457)
(0.0106249 -0.0219271 0.0106249)
(0.01391 -0.0150551 0.0101281)
(0.0150562 -0.00751676 0.00872945)
(0.0140766 0.00126436 0.00654254)
(0.0115422 0.00761293 0.00443095)
(0.00800512 0.00953749 0.00310342)
(0.00571368 0.00593727 0.00168785)
(0.00531303 0.00114847 0.000303142)
(0.0032858 -0.000873239 -0.000561786)
(0.00169615 -0.000818567 -0.00095778)
(0.000356449 -0.000647355 -0.000887855)
(-0.00231095 -0.000825571 0.00016959)
(-0.00468357 0.00209547 0.00184848)
(-0.00637525 0.00799416 0.00417557)
(-0.0112539 0.00894581 0.00525517)
(-0.0151906 0.0035025 0.00585862)
(-0.0155506 -0.00668753 0.00696866)
(-0.01293 -0.0178926 0.00761462)
(-0.00487683 -0.032146 0.00803226)
(0.00276186 -0.0372925 0.00426831)
(0.00699408 -0.0301911 0.00699408)
(0.00761156 -0.0213796 0.00784634)
(0.00739542 -0.0119977 0.00764146)
(0.00623694 -0.00247436 0.00679047)
(0.00711051 0.00562997 0.00540971)
(0.00735523 0.00800059 0.00416751)
(0.00749375 0.00494776 0.00301329)
(0.00674226 0.00179106 0.00184018)
(0.00476771 0.000814166 0.000756983)
(0.00275861 0.00133309 9.90118e-05)
(0.00125051 0.00196353 4.16838e-05)
(-0.00129468 0.00168028 0.00118316)
(-0.00417831 0.0024444 0.00279356)
(-0.00502062 0.00642869 0.00452477)
(-0.00594454 0.0077699 0.00593011)
(-0.00478592 0.000345831 0.00733448)
(-0.00502917 -0.0114038 0.00815451)
(-0.00582742 -0.0251388 0.0077624)
(-0.00150329 -0.041691 0.00726603)
(0.00189585 -0.0408627 0.00126465)
(0.00528006 -0.0331517 0.00528006)
(0.00403978 -0.0232028 0.00705624)
(0.00306962 -0.0128582 0.00768557)
(0.00134592 -0.00350711 0.00814996)
(0.00221878 0.00303571 0.00789868)
(0.00373489 0.0049341 0.00698034)
(0.00436627 0.00401266 0.00584225)
(0.00365659 0.00322533 0.00468357)
(0.00244664 0.00330283 0.00364611)
(0.00173958 0.00381302 0.00326131)
(0.00174439 0.00423445 0.00334495)
(0.00146765 0.00390061 0.00406666)
(0.000527007 0.00336424 0.00523019)
(3.30558e-05 0.00391397 0.00670169)
(0.000853742 0.00343805 0.00849607)
(0.00249462 -0.00205889 0.00949016)
(0.00133857 -0.0122919 0.00896321)
(-0.00156608 -0.0275048 0.00800312)
(0.000208381 -0.0450814 0.00676459)
(0.00120533 -0.0421706 -0.000622804)
(0.00432857 -0.0339995 0.00432857)
(0.00183935 -0.023798 0.00647738)
(0.000657935 -0.013685 0.0073284)
(-0.000910988 -0.00537745 0.00799587)
(-0.000936798 -0.0001208 0.00847111)
(0.000255724 0.00246987 0.00830377)
(0.00102764 0.00299496 0.00765726)
(0.00118327 0.00332907 0.00687428)
(0.00141503 0.00367652 0.00633436)
(0.00194238 0.00372578 0.00629583)
(0.00301644 0.00376454 0.00646417)
(0.00396642 0.00337049 0.00692954)
(0.00448762 0.00266292 0.00762667)
(0.00477924 0.0019349 0.00842997)
(0.00543068 -0.000107369 0.00915041)
(0.00517599 -0.00534861 0.00919357)
(0.00410654 -0.0144372 0.00860462)
(0.000663877 -0.0282854 0.00773844)
(0.00117859 -0.0454153 0.00613474)
(0.000395701 -0.0422204 -0.00197728)
(0.00343733 -0.0333823 0.00343733)
(-6.82535e-05 -0.023413 0.00555742)
(-0.00107962 -0.0142901 0.00623613)
(-0.00211109 -0.00746224 0.00658413)
(-0.00206773 -0.00299963 0.00691431)
(-0.00154768 -0.000514242 0.00720185)
(-0.000707572 0.000945384 0.00734963)
(-1.82476e-05 0.0020361 0.00717504)
(0.00113644 0.00262404 0.00705157)
(0.00236566 0.00245673 0.00711934)
(0.00389757 0.00225073 0.00718561)
(0.00528486 0.00173962 0.00736648)
(0.00633135 0.000816911 0.00760413)
(0.00698052 -0.000629101 0.00771875)
(0.00716115 -0.00312113 0.00773008)
(0.00652086 -0.00788775 0.0076652)
(0.00551129 -0.01599 0.0073645)
(0.0017893 -0.0283943 0.00678445)
(0.00191311 -0.043824 0.00509358)
(-0.000764536 -0.0403417 -0.00341448)
(0.00193614 -0.0312346 0.00193614)
(-0.00244398 -0.0221596 0.00375443)
(-0.00328232 -0.0149897 0.00403485)
(-0.00392879 -0.00943864 0.00395297)
(-0.00350153 -0.00560096 0.00388577)
(-0.00259352 -0.00312036 0.00407017)
(-0.00147898 -0.00150874 0.00446283)
(-0.000429529 -0.000188457 0.00506152)
(0.000877187 0.000423078 0.00557599)
(0.00224793 8.48688e-05 0.00545248)
(0.00396698 -0.000315587 0.00512529)
(0.00565575 -0.00093945 0.00484607)
(0.00709644 -0.00186307 0.00466314)
(0.00811492 -0.00319808 0.00467649)
(0.00855486 -0.00552218 0.00484727)
(0.00812172 -0.00975132 0.00513965)
(0.00704985 -0.0166241 0.00530004)
(0.00294225 -0.027127 0.00502707)
(0.00279599 -0.0404018 0.00345251)
(-0.00267002 -0.0353164 -0.00557698)
(-0.00110672 -0.026886 -0.00110672)
(-0.00589281 -0.0199039 5.32704e-05)
(-0.00707031 -0.0149313 -0.000294791)
(-0.00741625 -0.0112882 -0.00109627)
(-0.00649359 -0.00885285 -0.00168328)
(-0.00484437 -0.00711953 -0.00191597)
(-0.00279899 -0.00563661 -0.0017673)
(-0.00082285 -0.00403204 -0.00113751)
(0.000948824 -0.00290008 -0.000162225)
(0.00267429 -0.00355337 -0.000460121)
(0.00492175 -0.00427172 -0.000903465)
(0.00719199 -0.0048633 -0.00105379)
(0.0092011 -0.0054838 -0.000939591)
(0.0107276 -0.00640678 -0.000588528)
(0.0114975 -0.00808493 1.49149e-05)
(0.0111427 -0.0109762 0.000950731)
(0.00972637 -0.0158276 0.00180924)
(0.00504134 -0.0237825 0.00198581)
(0.0042707 -0.0343288 0.000761443)
(-0.00595741 -0.0261153 -0.00944934)
(-0.00684999 -0.0199029 -0.00684999)
(-0.0119711 -0.0156909 -0.00685111)
(-0.0132916 -0.0132903 -0.00777991)
(-0.0131516 -0.0118451 -0.008936)
(-0.0115601 -0.0110958 -0.00991373)
(-0.00896055 -0.0106105 -0.0105281)
(-0.00570543 -0.00994879 -0.0107591)
(-0.00221319 -0.00888212 -0.0101795)
(0.00118357 -0.00831838 -0.00868591)
(0.00419247 -0.00885658 -0.00902025)
(0.00750133 -0.00927958 -0.00915531)
(0.010534 -0.00932574 -0.00887336)
(0.0130843 -0.00921076 -0.00832663)
(0.0150369 -0.00915996 -0.00760535)
(0.0161938 -0.00949072 -0.00669896)
(0.0161503 -0.0105814 -0.00558807)
(0.0146625 -0.0129634 -0.0044521)
(0.00948847 -0.0175426 -0.00360167)
(0.00712375 -0.0248959 -0.00360044)
(-0.0116643 -0.0144409 -0.0159366)
(-0.0172936 -0.00873572 -0.0172936)
(-0.0234335 -0.0056577 -0.0201434)
(-0.0252045 -0.00396361 -0.0231218)
(-0.0248412 -0.00279853 -0.0260302)
(-0.0225989 -0.00185039 -0.0287631)
(-0.018711 -0.000864775 -0.0311063)
(-0.0132772 0.000318609 -0.0326844)
(-0.00699557 0.00183585 -0.0332033)
(0.00220155 0.00320952 -0.0321253)
(0.00983377 0.00152276 -0.031001)
(0.0154996 0.000183279 -0.0295759)
(0.0199967 -0.000791083 -0.0277236)
(0.0233425 -0.00150588 -0.0256471)
(0.0256041 -0.00208297 -0.0234157)
(0.0267467 -0.00266114 -0.0210561)
(0.0265245 -0.00346836 -0.0185816)
(0.024484 -0.00487739 -0.0158985)
(0.0183989 -0.00776565 -0.0129121)
(0.0122338 -0.0136147 -0.00986814)
(0.00787615 -0.0152178 0.0248054)
(0.0157451 -0.0118564 0.0243502)
(0.0217703 -0.00860254 0.0217703)
(0.0242733 -0.00512554 0.0180987)
(0.022956 -0.00159528 0.0139297)
(0.0173492 0.0021239 0.00948912)
(0.00874998 0.00487896 0.0054883)
(0.000821761 0.0027806 0.00225017)
(-0.000599872 -0.0010896 0.000860961)
(0.000252662 -0.00139709 0.00065019)
(0.000563079 -0.00101074 0.000875668)
(0.000654275 -0.000894689 0.00128898)
(0.000107599 -0.00134767 0.00193687)
(0.00017629 0.000982702 0.00437089)
(-0.00839416 0.00429774 0.0079191)
(-0.0198066 0.00167488 0.00969754)
(-0.0269341 -0.00268459 0.0110994)
(-0.027622 -0.00735172 0.0125533)
(-0.0221314 -0.0131094 0.0139024)
(-0.011726 -0.0207182 0.0146385)
(0.00442247 -0.0196044 0.0117751)
(0.0101281 -0.0150551 0.01391)
(0.0136498 -0.00987788 0.0136498)
(0.0151234 -0.00338447 0.01183)
(0.0145592 0.00394952 0.00898505)
(0.0121957 0.00884543 0.00645979)
(0.0088816 0.00965565 0.00471824)
(0.00674069 0.00540079 0.0031908)
(0.00572673 0.000786027 0.00143992)
(0.00359901 -0.00101772 0.000130468)
(0.00194005 -0.00084912 -0.000369374)
(0.000291796 -0.000493767 -6.36673e-07)
(-0.00280155 -0.000419465 0.00188516)
(-0.00546652 0.00281156 0.00441065)
(-0.00789383 0.00830044 0.00678427)
(-0.0127499 0.00855411 0.00790724)
(-0.016553 0.00290555 0.00861709)
(-0.0170104 -0.00670634 0.0098955)
(-0.0138168 -0.0171667 0.0104524)
(-0.00584781 -0.0298621 0.00995632)
(0.00308287 -0.0266867 0.00316013)
(0.00784634 -0.0213796 0.00761156)
(0.00944946 -0.0150314 0.00944946)
(0.0100158 -0.00741563 0.00939826)
(0.0100023 0.000896541 0.00833506)
(0.00996134 0.00747107 0.00678497)
(0.00928343 0.00869218 0.00553256)
(0.00867482 0.0050571 0.00422871)
(0.00734032 0.00161368 0.00257928)
(0.00514729 0.000334878 0.000992023)
(0.00300981 0.00071652 5.89116e-05)
(0.00122911 0.00141796 0.000141298)
(-0.00190575 0.00148248 0.00202126)
(-0.00512478 0.0029769 0.00448545)
(-0.00666603 0.0072271 0.00658444)
(-0.00828686 0.00773905 0.00800737)
(-0.00880515 0.00043334 0.00924852)
(-0.00873832 -0.0108545 0.0100672)
(-0.00822082 -0.0238027 0.00927053)
(-0.00290819 -0.0386348 0.00710567)
(0.00231317 -0.029902 -0.00189352)
(0.00705624 -0.0232028 0.00403978)
(0.0072723 -0.0159096 0.0072723)
(0.00707152 -0.00753819 0.00858732)
(0.00619497 0.000782091 0.00905329)
(0.00664684 0.00651872 0.00841322)
(0.00709166 0.00746911 0.00739222)
(0.00681108 0.00526852 0.00606965)
(0.00548599 0.00325214 0.00437446)
(0.00379818 0.00247346 0.00275598)
(0.00253047 0.00282598 0.00189242)
(0.00169807 0.00357488 0.00199461)
(0.000362907 0.00380114 0.00333912)
(-0.00174976 0.00426922 0.00560249)
(-0.00294446 0.00624172 0.00776892)
(-0.00306286 0.0067416 0.00978227)
(-0.00222935 0.00111132 0.0113311)
(-0.00326004 -0.0106558 0.0107676)
(-0.00485181 -0.0254196 0.00872371)
(-0.00130075 -0.0415838 0.00507159)
(0.0013606 -0.0327395 -0.00464366)
(0.00647738 -0.023798 0.00183935)
(0.00564398 -0.0157643 0.00564398)
(0.00503493 -0.00729518 0.00745956)
(0.00373887 0.000378969 0.00865376)
(0.00358881 0.00546098 0.00879342)
(0.00398308 0.00678373 0.0081286)
(0.00386455 0.0058375 0.0069473)
(0.003165 0.00475363 0.00549546)
(0.00246622 0.00428171 0.00436025)
(0.00216617 0.00449271 0.00395171)
(0.00228679 0.00505134 0.00420353)
(0.00224964 0.00531567 0.00519677)
(0.00172508 0.00539793 0.00677858)
(0.00118077 0.00584595 0.00858655)
(0.00126836 0.00521032 0.0103755)
(0.0011958 0.000327884 0.0113931)
(4.55298e-05 -0.0103898 0.0103704)
(-0.0028793 -0.0253195 0.0077871)
(-0.000200159 -0.0417872 0.00311672)
(0.000122268 -0.0344546 -0.00655176)
(0.00555742 -0.023413 -6.82535e-05)
(0.00388241 -0.0148329 0.00388241)
(0.00329229 -0.00654208 0.00566595)
(0.0020669 0.000356972 0.00669933)
(0.00167997 0.00463232 0.00693137)
(0.00174242 0.00602826 0.00649759)
(0.00178659 0.00583296 0.00570711)
(0.00166889 0.00541284 0.00477551)
(0.00171362 0.00524694 0.00423492)
(0.0020423 0.00534048 0.00413586)
(0.00274197 0.00566531 0.00439639)
(0.00339283 0.00582411 0.00508706)
(0.00372461 0.00570792 0.00613159)
(0.00375106 0.00536951 0.00735955)
(0.00366534 0.00398244 0.0086231)
(0.00296058 -0.000625757 0.00927459)
(0.00205347 -0.00986962 0.00855854)
(-0.00152998 -0.0241125 0.0060229)
(0.00083215 -0.0401202 0.000882721)
(-0.00145228 -0.0344471 -0.00852598)
(0.00375443 -0.0221596 -0.00244398)
(0.00132907 -0.013334 0.00132907)
(0.00108443 -0.00579096 0.00288122)
(0.000137994 -0.000150166 0.00348487)
(3.66429e-05 0.00330653 0.00355736)
(0.000398203 0.00472041 0.0031996)
(0.00074505 0.00497191 0.00278923)
(0.000953532 0.00501095 0.00256907)
(0.00119259 0.00505586 0.00261835)
(0.00171689 0.00497533 0.00253629)
(0.00269006 0.00502417 0.00258153)
(0.00372005 0.00500478 0.00288732)
(0.00453818 0.00476702 0.00345842)
(0.00501473 0.00415039 0.00428812)
(0.00507079 0.00245604 0.00526269)
(0.00435839 -0.00164742 0.0058062)
(0.00368328 -0.00954135 0.00530414)
(7.64114e-05 -0.0220186 0.00307493)
(0.00219395 -0.036722 -0.00173133)
(-0.00360847 -0.0313849 -0.0111576)
(5.32704e-05 -0.0199039 -0.00589281)
(-0.00314307 -0.0109762 -0.00314307)
(-0.00320602 -0.00442555 -0.00239959)
(-0.00336387 0.000196143 -0.00232343)
(-0.00232765 0.00314788 -0.00201342)
(-0.00117958 0.00449835 -0.00213689)
(-0.000119894 0.00515753 -0.0022436)
(0.000563884 0.00582488 -0.00198058)
(0.000768556 0.00633945 -0.00145215)
(0.00129433 0.00588274 -0.00159428)
(0.00252489 0.00542285 -0.00166555)
(0.00393504 0.00506043 -0.0015087)
(0.00523973 0.00466879 -0.00115111)
(0.00623827 0.00404667 -0.000615457)
(0.00685078 0.00261299 5.69361e-05)
(0.00694921 -0.00119247 0.000354914)
(0.00650582 -0.00826695 0.000233164)
(0.00288804 -0.0186687 -0.00133686)
(0.0042509 -0.0313474 -0.00478331)
(-0.00724285 -0.0239925 -0.0153132)
(-0.00685111 -0.0156909 -0.0119711)
(-0.0108408 -0.010129 -0.0108408)
(-0.01108 -0.00672475 -0.0110478)
(-0.0104514 -0.00456591 -0.0119127)
(-0.00886801 -0.00347557 -0.0127584)
(-0.00660568 -0.00278269 -0.013082)
(-0.00427097 -0.00183953 -0.0135546)
(-0.0017527 -0.000237315 -0.0132438)
(0.000456514 0.000713852 -0.0119824)
(0.00257685 -0.000613918 -0.0116974)
(0.00488135 -0.00181339 -0.0112601)
(0.00698824 -0.00225264 -0.0105471)
(0.00892907 -0.00227472 -0.00973643)
(0.0107619 -0.00227087 -0.00901418)
(0.0122848 -0.00282843 -0.00837535)
(0.0128722 -0.00455946 -0.00749019)
(0.0125435 -0.00799653 -0.00704581)
(0.0085258 -0.014031 -0.00743496)
(0.00760541 -0.0230144 -0.00889129)
(-0.014045 -0.0126039 -0.0218857)
(-0.0201434 -0.0056577 -0.0234335)
(-0.0264646 -0.0019777 -0.0264646)
(-0.0280231 8.70677e-05 -0.029829)
(-0.0274188 0.00152368 -0.0331922)
(-0.0250524 0.00270834 -0.0364885)
(-0.0210534 0.00396582 -0.03942)
(-0.0153209 0.00542919 -0.0413907)
(-0.00841696 0.00726809 -0.0418929)
(0.00183273 0.00898409 -0.0404662)
(0.0106666 0.00677145 -0.0391437)
(0.0167881 0.00497615 -0.037215)
(0.0213724 0.00361714 -0.0346827)
(0.0246216 0.00258544 -0.0319086)
(0.0267649 0.00174736 -0.0290351)
(0.0279219 0.000948308 -0.0261733)
(0.0279353 -9.29276e-05 -0.0233656)
(0.0261759 -0.00182329 -0.0204471)
(0.0200791 -0.00521934 -0.01747)
(0.0137401 -0.0119287 -0.0148175)
(0.00685093 -0.0104008 0.0269996)
(0.0130489 -0.00772115 0.0268881)
(0.0180987 -0.00512554 0.0242733)
(0.0201128 -0.00226251 0.0201128)
(0.018274 0.000874848 0.0148169)
(0.0128445 0.00406036 0.00933518)
(0.00520213 0.00480705 0.00456992)
(0.000173513 0.000713581 0.00196065)
(0.000568519 -0.00151493 0.00146049)
(0.00101478 -0.00134791 0.00152474)
(0.00112233 -0.000963135 0.00182352)
(0.000914994 -0.000854869 0.0023549)
(3.0737e-05 -0.00127061 0.0033448)
(7.4426e-05 0.000569879 0.00622952)
(-0.00721478 0.00405998 0.0101403)
(-0.0180427 0.00195876 0.0127664)
(-0.0248179 -0.0022289 0.0150473)
(-0.0255532 -0.0065814 0.0169982)
(-0.0203987 -0.0116823 0.0185077)
(-0.0110843 -0.0181769 0.0187168)
(0.00414151 -0.0114128 0.0121193)
(0.00872945 -0.00751676 0.0150562)
(0.01183 -0.00338447 0.0151234)
(0.0131431 0.00221393 0.0131431)
(0.0127927 0.00723591 0.0102545)
(0.0108709 0.00999991 0.00755571)
(0.00820833 0.00850334 0.00561574)
(0.0068791 0.0035007 0.00405836)
(0.00522354 -0.000347992 0.00209073)
(0.00343648 -0.0013149 0.000890107)
(0.00193716 -0.000882924 0.000512266)
(0.000109158 -0.00032821 0.00111622)
(-0.00294251 -0.000219012 0.00351548)
(-0.00570767 0.00260535 0.00667114)
(-0.00814527 0.00778407 0.00911836)
(-0.0128411 0.0082984 0.0102437)
(-0.0163894 0.00299943 0.0109751)
(-0.0167219 -0.00573255 0.0121111)
(-0.0133648 -0.0148549 0.0122717)
(-0.00587171 -0.025431 0.0105945)
(0.00334871 -0.0172176 0.00227198)
(0.00764146 -0.0119977 0.00739542)
(0.00939826 -0.00741563 0.0100158)
(0.0103661 -0.00162894 0.0103661)
(0.0109476 0.00493637 0.00944886)
(0.0107357 0.00899701 0.00795152)
(0.00992439 0.00799628 0.00667599)
(0.00897105 0.00392202 0.00515025)
(0.00718312 0.000823229 0.00321923)
(0.00489637 -0.000242809 0.00149333)
(0.00278679 0.000318892 0.000622646)
(0.000770646 0.0012105 0.000978541)
(-0.00247978 0.00146299 0.0033154)
(-0.00576771 0.0029244 0.0062235)
(-0.00773959 0.00693546 0.00842054)
(-0.00974393 0.00736009 0.00953419)
(-0.0108039 0.000495869 0.0103126)
(-0.0104034 -0.00961073 0.0107685)
(-0.00897203 -0.0206563 0.00941261)
(-0.00322704 -0.0329229 0.00567011)
(0.00271025 -0.021079 -0.00308789)
(0.00768557 -0.0128582 0.00306962)
(0.00858732 -0.00753819 0.00707152)
(0.00893554 -0.00164352 0.00893554)
(0.00898391 0.00431981 0.00943417)
(0.00925559 0.00799189 0.0088467)
(0.00909547 0.00750983 0.00784994)
(0.00818292 0.00477442 0.00633154)
(0.00644489 0.0024618 0.00433523)
(0.0045027 0.0014327 0.00245464)
(0.00285108 0.00176109 0.00143747)
(0.00144656 0.00268779 0.00167574)
(-0.000665789 0.00330059 0.00355498)
(-0.00324926 0.00420467 0.00627998)
(-0.00491843 0.00663726 0.00863513)
(-0.00567896 0.00734497 0.0103462)
(-0.00556782 0.00184686 0.0115366)
(-0.00592775 -0.00909554 0.0109063)
(-0.00627197 -0.0216845 0.00805104)
(-0.00159998 -0.0354068 0.00255154)
(0.00144397 -0.0255244 -0.00583312)
(0.0073284 -0.013685 0.000657935)
(0.00745956 -0.00729518 0.00503493)
(0.00749061 -0.00148509 0.00749061)
(0.00699486 0.00404517 0.00882535)
(0.00694513 0.00749462 0.00896192)
(0.00682863 0.00762313 0.00823338)
(0.00610311 0.00588857 0.00682748)
(0.00485869 0.00410941 0.0050186)
(0.00355878 0.00316711 0.00344085)
(0.00254082 0.00333348 0.0027159)
(0.0018305 0.00415531 0.00302452)
(0.000937698 0.00486847 0.00437475)
(-0.000359498 0.00552169 0.00650186)
(-0.00144712 0.0068175 0.00879224)
(-0.0017612 0.00708805 0.0108111)
(-0.00177285 0.00243601 0.0119938)
(-0.0024672 -0.00802546 0.0106436)
(-0.00435268 -0.0211195 0.00680615)
(-0.000244732 -0.0358988 0.000196869)
(-0.000217379 -0.028919 -0.0078745)
(0.00623613 -0.0142901 -0.00107962)
(0.00566595 -0.00654208 0.00329229)
(0.00572968 -0.000372896 0.00572968)
(0.00507186 0.00453653 0.00710354)
(0.0048304 0.00747107 0.00753792)
(0.00472881 0.00782071 0.00709415)
(0.00432411 0.00668204 0.00606892)
(0.00358715 0.00538549 0.00479842)
(0.00272086 0.00469694 0.00378662)
(0.00208508 0.0047328 0.00337557)
(0.00189304 0.00529811 0.00367764)
(0.00179353 0.00590482 0.00460883)
(0.00152247 0.00639906 0.00602373)
(0.00116462 0.00699833 0.00774281)
(0.00108932 0.00677951 0.00950273)
(0.000745127 0.00298504 0.0105093)
(0.000236573 -0.00641399 0.00924784)
(-0.00267831 -0.0195962 0.00496428)
(0.00112535 -0.035213 -0.00188637)
(-0.00218111 -0.0305754 -0.0100792)
(0.00403485 -0.0149897 -0.00328232)
(0.00288122 -0.00579096 0.00108443)
(0.00332206 0.000259856 0.00332206)
(0.00271952 0.0045382 0.00431045)
(0.00282944 0.00681755 0.00478353)
(0.00313575 0.00713933 0.00458245)
(0.00317407 0.00644999 0.0040384)
(0.00275788 0.00576727 0.00344588)
(0.0019398 0.00552435 0.00302476)
(0.0013651 0.0053132 0.00272302)
(0.00150533 0.00542876 0.00286401)
(0.00194412 0.00572882 0.00339941)
(0.00237865 0.0060503 0.00425202)
(0.00269579 0.00629781 0.00538509)
(0.00298424 0.00573724 0.00664894)
(0.00267627 0.00241882 0.00740337)
(0.00253096 -0.00505713 0.00635328)
(-0.000542547 -0.0174931 0.00216156)
(0.00274735 -0.0332995 -0.0039916)
(-0.00464417 -0.02908 -0.0129334)
(-0.000294791 -0.0149313 -0.00707031)
(-0.00239959 -0.00442555 -0.00320602)
(-0.00114682 0.00209043 -0.00114682)
(-0.000992173 0.00529149 -0.000464459)
(-0.00029577 0.00678555 -0.000273274)
(0.000696447 0.00708614 -0.000564796)
(0.00146822 0.00707474 -0.000985271)
(0.00167359 0.00739668 -0.00114313)
(0.000993165 0.00782014 -0.000802891)
(0.000543175 0.00712877 -0.000991343)
(0.00123255 0.00649339 -0.000831877)
(0.00230117 0.00618591 -0.000346349)
(0.00339826 0.00610401 0.000394045)
(0.00432814 0.00609494 0.00133871)
(0.00512745 0.0055703 0.00232248)
(0.00533338 0.00304607 0.00276289)
(0.00569963 -0.00365222 0.00143214)
(0.0028964 -0.0149125 -0.00202602)
(0.00498267 -0.0292255 -0.00670727)
(-0.00861557 -0.0232215 -0.0172281)
(-0.00777991 -0.0132903 -0.0132916)
(-0.0110478 -0.00672475 -0.01108)
(-0.0105331 -0.00275591 -0.0105331)
(-0.00971917 -0.000316605 -0.011051)
(-0.0083144 0.000742828 -0.0122513)
(-0.00650742 0.00124031 -0.0135657)
(-0.00436898 0.00204088 -0.0146603)
(-0.00191033 0.00377579 -0.0148416)
(0.000213856 0.00483767 -0.0135836)
(0.00230508 0.00299583 -0.0129955)
(0.00450791 0.00129843 -0.0120274)
(0.00633967 0.00061619 -0.0107891)
(0.00796812 0.00052218 -0.00942535)
(0.00946672 0.000639906 -0.00802779)
(0.0107785 0.000397899 -0.00669437)
(0.0114783 -0.00145445 -0.00584829)
(0.012082 -0.00534068 -0.00648159)
(0.00888563 -0.0121071 -0.00822603)
(0.00856751 -0.0221324 -0.0105957)
(-0.0162684 -0.011829 -0.0237138)
(-0.0231218 -0.00396361 -0.0252045)
(-0.029829 8.70677e-05 -0.0280231)
(-0.0312606 0.0023298 -0.0312606)
(-0.0303698 0.00391194 -0.0345962)
(-0.027908 0.00526049 -0.0382137)
(-0.023898 0.00671182 -0.0418339)
(-0.0179786 0.00848508 -0.0448365)
(-0.0102464 0.0107765 -0.046186)
(0.00189974 0.0130824 -0.045088)
(0.0124597 0.0101106 -0.0428752)
(0.0191554 0.00777996 -0.0398602)
(0.0236961 0.00604289 -0.0363213)
(0.026612 0.00472135 -0.0327367)
(0.028437 0.00367633 -0.0293334)
(0.0294767 0.0027433 -0.0262282)
(0.0297565 0.00157353 -0.0235741)
(0.0282093 -0.00029016 -0.0209572)
(0.0219881 -0.00392221 -0.0184081)
(0.0152825 -0.0111986 -0.0161567)
(0.0057047 -0.00558968 0.0253815)
(0.0101512 -0.00361638 0.0257119)
(0.0139297 -0.00159528 0.022956)
(0.0148169 0.000874848 0.018274)
(0.0124934 0.00360632 0.0124934)
(0.00742577 0.00520948 0.00676968)
(0.00201334 0.00252262 0.00280435)
(0.000735034 -0.00111194 0.00213262)
(0.00149482 -0.0016832 0.00237277)
(0.00165857 -0.00133333 0.00278187)
(0.00139468 -0.000989142 0.00306235)
(0.000928809 -0.000842593 0.0035487)
(-3.34168e-07 -0.00110875 0.00466234)
(0.000246164 -8.92643e-05 0.00774215)
(-0.00451195 0.00354201 0.0118305)
(-0.0145679 0.00261711 0.0151899)
(-0.0212303 -0.00126779 0.0181371)
(-0.0223508 -0.00525704 0.0204593)
(-0.0178713 -0.00966338 0.0218039)
(-0.00995831 -0.015063 0.0212212)
(0.00362559 -0.00173122 0.0105793)
(0.00654254 0.00126436 0.0140766)
(0.00898505 0.00394952 0.0145592)
(0.0102545 0.00723591 0.0127927)
(0.010131 0.00975377 0.010131)
(0.00875844 0.00960874 0.00763904)
(0.0073136 0.00564403 0.00599936)