/*--------------------------------*- C++ -*----------------------------------*\
  =========                 |
  \\      /  F ield         | OpenFOAM: The Open Source CFD Toolbox
   \\    /   O peration     | Website:  https://openfoam.org
    \\  /    A nd           | Version:  8
     \\/     M anipulation  |
\*---------------------------------------------------------------------------*/
FoamFile
{
    version     2.0;
    format      ascii;
    class       volScalarField;
    location    "1600";
    object      alphat;
}
// * * * * * * * * * * * * * * * * * * * * * * * * * * * * * * * * * * * * * //

dimensions      [1 -1 -1 0 0 0 0];

internalField   nonuniform List<scalar> 
4000
(
0.000314843
0.000306431
0.00029356
0.000279992
0.000257043
0.000148134
0.000102993
0.000102012
0.000100735
9.98373e-05
9.87442e-05
9.92024e-05
0.000110674
0.000160273
0.000241012
0.000261756
0.000272848
0.00028064
0.000291851
0.000303325
0.000326454
0.000315904
0.000293531
0.000266151
0.000244679
0.000178652
0.000123138
0.000129232
0.000129583
0.000126003
0.000118582
0.000111891
0.000132546
0.00016446
0.00022069
0.000232494
0.000243312
0.000264571
0.000294557
0.00031488
0.000332934
0.000324653
0.000300541
0.000255825
0.000233321
0.000194756
0.000162438
0.000133204
0.000143123
0.00013915
0.000128647
0.000120679
0.000139778
0.000160516
0.00020146
0.000206527
0.000206572
0.000255846
0.000300453
0.000321228
0.0003363
0.000331572
0.000312401
0.000281197
0.000235716
0.000211743
0.000187556
0.000161912
0.000143777
0.000140372
0.000133585
0.000134263
0.000156106
0.000185049
0.000195828
0.000212987
0.00024313
0.000277478
0.000308514
0.000324398
0.000338764
0.000338388
0.000327806
0.000310151
0.000289565
0.000272056
0.000253388
0.000228348
0.000210355
0.000202692
0.000213952
0.000228233
0.000240444
0.000251877
0.000261867
0.000273186
0.000287554
0.000304709
0.000320439
0.000327411
0.000341303
0.000345938
0.000343453
0.000336838
0.000328042
0.000318826
0.000308828
0.000298109
0.000287017
0.000277606
0.000281672
0.000288061
0.000294737
0.000301126
0.000306866
0.000312595
0.000318956
0.000325748
0.000330867
0.000330192
0.0003443
0.000353921
0.000358248
0.000359515
0.000358632
0.000355336
0.000349744
0.000342302
0.000333484
0.000323307
0.000324492
0.000328619
0.000333164
0.000337172
0.000340135
0.000341982
0.000342736
0.000342393
0.00033997
0.000332868
0.000348207
0.000363074
0.00037321
0.000380263
0.000384726
0.000386048
0.000383885
0.000378497
0.00037057
0.000359539
0.000358678
0.000361674
0.000365048
0.000367486
0.000368114
0.000366529
0.000362843
0.000357303
0.000349094
0.000336124
0.000353923
0.00037495
0.000390901
0.000402662
0.000411018
0.000415771
0.000416524
0.000413332
0.000406343
0.000394166
0.00039151
0.000394077
0.000396674
0.000397606
0.000395831
0.000391039
0.000383617
0.000373844
0.000360441
0.000341183
0.000362683
0.000389736
0.00041113
0.00042672
0.000438552
0.000447021
0.000452246
0.000454103
0.000452062
0.000443258
0.000438584
0.000439114
0.000438442
0.000435491
0.000429893
0.000421521
0.000410307
0.000395887
0.000376041
0.000349454
0.000306431
0.000311198
0.00030218
0.000285284
0.000260479
0.000173153
0.000124675
0.00011724
0.000116145
0.000116533
0.000117002
0.000122821
0.000134048
0.000201811
0.000253001
0.000272404
0.00028443
0.000294228
0.000305438
0.000306293
0.000315904
0.000437733
0.000457694
0.000402674
0.000324792
0.000252833
0.000246326
0.000304096
0.000333039
0.000297248
0.000249783
0.000225299
0.000221856
0.000241035
0.000297485
0.000342326
0.000364647
0.000377482
0.000413522
0.000319452
0.000324653
0.000490405
0.000541413
0.000488996
0.000375593
0.00030355
0.000280783
0.00031708
0.000393261
0.000378451
0.000311857
0.000277745
0.000278986
0.000281864
0.000292895
0.000314943
0.000326294
0.000398096
0.000477517
0.000327407
0.000331572
0.0005177
0.000578789
0.000527591
0.000403893
0.000330849
0.000288323
0.000279532
0.00033445
0.000398221
0.000363797
0.000295698
0.000295884
0.000309907
0.000304287
0.00031296
0.000325809
0.000428761
0.000524654
0.000331906
0.000338388
0.000533674
0.000600525
0.000556527
0.000436657
0.000359953
0.000304833
0.0002686
0.000272145
0.000298507
0.000283062
0.000264419
0.000279381
0.000310425
0.00032546
0.000337615
0.000377691
0.000480266
0.000538551
0.000335362
0.000345938
0.000539877
0.000611424
0.000598292
0.000502599
0.000414418
0.000351677
0.000304712
0.000284869
0.000287192
0.000286199
0.000287621
0.000304146
0.000332801
0.000359171
0.000386491
0.000448599
0.000523181
0.000530361
0.000338571
0.000353921
0.00053726
0.000608558
0.00063392
0.000617259
0.000546379
0.000460658
0.000398369
0.000358241
0.000345667
0.000347121
0.00035552
0.000374444
0.000402973
0.000440568
0.000487162
0.000523627
0.000539476
0.000506629
0.000342602
0.000363074
0.000525657
0.000589225
0.000645289
0.00068316
0.000686412
0.00066089
0.000612143
0.000560024
0.000530623
0.000522948
0.000528053
0.000543244
0.000562987
0.000576722
0.000577116
0.000560565
0.000523833
0.000479007
0.000348772
0.00037495
0.000496273
0.000556079
0.000605892
0.000638776
0.000648677
0.000633065
0.000595815
0.000545212
0.000492454
0.000476415
0.00048883
0.0005126
0.000534539
0.000542242
0.000531902
0.00050948
0.000482547
0.000453954
0.000358178
0.000389736
0.000419345
0.000443562
0.000462527
0.000478147
0.000490292
0.000498477
0.000502146
0.000500498
0.000490942
0.000483716
0.000483537
0.000481549
0.000476323
0.000467426
0.000455048
0.000439921
0.000422393
0.000400216
0.000372013
0.00029356
0.00030218
0.000294234
0.000279303
0.000254256
0.000165241
0.000138539
0.000124693
0.000124809
0.000127776
0.000129547
0.000136714
0.00016256
0.000227155
0.000259858
0.000277389
0.000289393
0.000299573
0.000309028
0.000304839
0.000293531
0.000457694
0.000485981
0.000410913
0.000327701
0.000274282
0.000289172
0.000337401
0.000379165
0.000333504
0.000275216
0.000243964
0.00024152
0.00027524
0.000332606
0.000383775
0.000418712
0.000438986
0.000458715
0.000317729
0.000300541
0.000541413
0.000627751
0.000550118
0.000415262
0.000346492
0.000343827
0.000390492
0.000463705
0.000428446
0.000344763
0.000310519
0.000307544
0.000313537
0.000344895
0.00038885
0.000429005
0.000496281
0.000551406
0.000326928
0.000312401
0.000578789
0.00067549
0.000626114
0.000487171
0.000401235
0.000364537
0.000371794
0.00044071
0.000488274
0.000428539
0.000372964
0.000357668
0.000357222
0.000360708
0.000384024
0.000417754
0.000541224
0.000623154
0.000332961
0.000327806
0.000600525
0.000695942
0.000658532
0.00052703
0.000431014
0.000370585
0.000342533
0.000372193
0.000432929
0.00040731
0.000358481
0.000358693
0.000373484
0.000375833
0.000382674
0.000418536
0.000566903
0.000655234
0.000338008
0.000343453
0.000611424
0.000706797
0.000683973
0.000562704
0.00045954
0.000384779
0.000333118
0.000322422
0.000347157
0.000339459
0.000322776
0.000335738
0.000363431
0.000377183
0.000387484
0.000443859
0.000587939
0.000642881
0.000343541
0.000358248
0.000608558
0.000704561
0.00070529
0.000623698
0.000531491
0.000447628
0.000379403
0.000341659
0.000339397
0.000337288
0.000336183
0.000354895
0.000383989
0.000404547
0.000426867
0.000485095
0.000589624
0.000598033
0.000350908
0.00037321
0.000589225
0.000699444
0.000763771
0.000739702
0.000684565
0.000612245
0.000531012
0.000464144
0.000428986
0.000418128
0.00042595
0.000453465
0.000489322
0.000512657
0.00052619
0.00055437
0.000580088
0.000545951
0.000360607
0.000390901
0.000556079
0.000701821
0.000836434
0.000914547
0.000920709
0.000875381
0.000791698
0.000688749
0.000598666
0.000577686
0.000615532
0.000675426
0.000727301
0.000743532
0.000726311
0.000677376
0.000597186
0.000514706
0.000374231
0.00041113
0.000443562
0.000470186
0.000492042
0.00051104
0.000526711
0.000537892
0.000543474
0.000542296
0.000531835
0.000521956
0.000521449
0.000518384
0.000511033
0.000498911
0.000482646
0.00046429
0.000444841
0.000421445
0.000391826
0.000279992
0.000285284
0.000279303
0.000264861
0.000235698
0.000153431
0.00014814
0.000129435
0.000132192
0.000138216
0.000140012
0.000143723
0.000188897
0.000234432
0.000259142
0.000275412
0.000287293
0.00029694
0.000304578
0.000298571
0.000266151
0.000402674
0.000410913
0.000356332
0.000297514
0.00028219
0.000306267
0.000353968
0.000414991
0.000362205
0.000287093
0.000250696
0.000251538
0.000289025
0.000339407
0.000388902
0.00043365
0.000465931
0.000468732
0.000309603
0.000255825
0.000488996
0.000550118
0.0004759
0.000382086
0.000352639
0.000374103
0.00042511
0.000509132
0.000460257
0.00036506
0.000324635
0.000315785
0.000331511
0.000375873
0.000436022
0.000499965
0.000562472
0.000582677
0.000320931
0.000281197
0.000527591
0.000626114
0.000577538
0.000473187
0.000418383
0.000406019
0.0004301
0.000506138
0.000546698
0.000455359
0.000395733
0.000377186
0.000378022
0.000402928
0.000453288
0.000520997
0.00062718
0.000673427
0.000330417
0.000310151
0.000556527
0.000658532
0.000637457
0.000539902
0.000466811
0.000423714
0.000411055
0.000458166
0.000539067
0.00049827
0.000431494
0.000416436
0.000418095
0.000425186
0.000451453
0.000506948
0.00065171
0.00072739
0.000339256
0.000336838
0.000598292
0.000683973
0.000672998
0.000586257
0.000504034
0.000440646
0.000398941
0.000405346
0.000465563
0.00046294
0.000414644
0.000414901
0.00043073
0.00043504
0.000442162
0.000493661
0.000654247
0.000735723
0.000348434
0.000359515
0.00063392
0.00070529
0.000706261
0.000642484
0.000568385
0.000498552
0.000437657
0.000407435
0.000425294
0.000433692
0.00041393
0.000426006
0.000449409
0.000455459
0.000455552
0.000505048
0.000643653
0.000686678
0.000359057
0.000380263
0.000645289
0.000763771
0.000795864
0.000769226
0.000720318
0.000656672
0.0005796
0.00050528
0.000459909
0.000448253
0.000460232
0.000502322
0.000546316
0.000559086
0.000553527
0.000583434
0.000653389
0.000621142
0.000371877
0.000402662
0.000605892
0.000836434
0.000987224
0.00103624
0.00105729
0.00103532
0.000965053
0.000855873
0.000740139
0.000706178
0.000763219
0.000845449
0.000896055
0.000880688
0.000825247
0.000790754
0.000729052
0.000582612
0.000388677
0.00042672
0.000462527
0.000492042
0.000517358
0.00054105
0.000561542
0.000577182
0.000586806
0.00058913
0.000581744
0.000567077
0.000563078
0.000556689
0.00054561
0.000529097
0.000508035
0.000485804
0.000464457
0.000439291
0.000407289
0.000257043
0.000260479
0.000254256
0.000235698
0.000208206
0.000154255
0.000153555
0.00013879
0.000138912
0.000148765
0.000148426
0.00015382
0.000191676
0.00022014
0.000242414
0.000263744
0.000276701
0.00028582
0.000291739
0.000286677
0.000244679
0.000324792
0.000327701
0.000297514
0.00026795
0.000287389
0.00031674
0.000369574
0.000450873
0.000396392
0.000300456
0.000256698
0.000253061
0.000279353
0.000315685
0.000358152
0.00040404
0.000442786
0.00044445
0.000293835
0.000233321
0.000375593
0.000415262
0.000382086
0.00034728
0.000357024
0.000387125
0.000441976
0.000543026
0.000491974
0.000382277
0.000331697
0.000319964
0.000333057
0.00036964
0.000428338
0.000504663
0.000573417
0.000578667
0.000309007
0.000235716
0.000403893
0.000487171
0.000473187
0.000431313
0.000418604
0.000431498
0.000467944
0.000555415
0.000588324
0.000476
0.000406029
0.000384196
0.000387589
0.000418283
0.000480076
0.000569491
0.000668686
0.000687173
0.000324204
0.000289565
0.000436657
0.00052703
0.000539902
0.000502008
0.000470774
0.000454149
0.000459583
0.00052111
0.000608099
0.000550831
0.0004666
0.000439312
0.000437514
0.000455542
0.000502643
0.000584917
0.000710145
0.000765359
0.000338158
0.000328042
0.000502599
0.000562704
0.000586257
0.000557044
0.00051588
0.000477941
0.00045458
0.000478551
0.000560273
0.000562226
0.00049006
0.000470082
0.000473937
0.000482098
0.000506028
0.000570051
0.000715511
0.000802908
0.000351343
0.000358632
0.000617259
0.000623698
0.000642484
0.000625429
0.000587077
0.000540262
0.000495186
0.000478091
0.000517676
0.000546762
0.000507623
0.000499382
0.00051114
0.000515897
0.000519549
0.000568192
0.000704233
0.000759775
0.000365293
0.000384726
0.00068316
0.000739702
0.000769226
0.00076135
0.000729544
0.000680205
0.000612986
0.000540128
0.00049437
0.000489282
0.000500907
0.000548786
0.000590716
0.00060328
0.000599804
0.000634881
0.000718331
0.000683604
0.000380811
0.000411018
0.000638776
0.000914547
0.00103624
0.00112034
0.00117211
0.0011701
0.00110052
0.000966459
0.000811875
0.000768807
0.000856017
0.000971158
0.00102778
0.000998536
0.000921564
0.000870635
0.000830981
0.000639129
0.000400338
0.000438552
0.000478147
0.00051104
0.00054105
0.000570041
0.000595437
0.00061595
0.000630377
0.000637329
0.000634663
0.000614863
0.000606146
0.000595349
0.000579931
0.000559241
0.000534243
0.00050796
0.000483168
0.000455127
0.000419794
0.000148134
0.000173153
0.000165241
0.000153431
0.000154255
0.000158111
0.000154689
0.000143065
0.000143096
0.000157026
0.000155209
0.000157608
0.000166477
0.000172217
0.000189171
0.000218819
0.000251636
0.000265485
0.000270725
0.000267619
0.000178652
0.000252833
0.000274282
0.00028219
0.000287389
0.000307985
0.000338402
0.000388524
0.000483432
0.00043229
0.00032722
0.000278419
0.000262958
0.000266258
0.000277188
0.000301711
0.000334615
0.000360539
0.000356736
0.000265245
0.000194756
0.00030355
0.000346492
0.000352639
0.000357024
0.000376247
0.000403957
0.000460994
0.000565064
0.000519157
0.000403631
0.000347815
0.000336314
0.000338117
0.000347227
0.00037275
0.000421388
0.000477719
0.000489959
0.000288345
0.000211743
0.000330849
0.000401235
0.000418383
0.000418604
0.00043208
0.000455159
0.000493646
0.000580388
0.000600137
0.000491271
0.00041829
0.000399273
0.000399582
0.000413557
0.000448218
0.000515551
0.000600753
0.000630327
0.000313705
0.000272056
0.000359953
0.000431014
0.000466811
0.000470774
0.000470431
0.000474944
0.000495255
0.000560435
0.000629123
0.000577389
0.000487757
0.000454465
0.000452287
0.000467845
0.000506582
0.000583925
0.000693832
0.000748028
0.000334209
0.000318826
0.000414418
0.00045954
0.000504034
0.00051588
0.000509092
0.000496952
0.000494551
0.000531719
0.000602292
0.000611902
0.000534895
0.000496593
0.000494514
0.00050771
0.000539651
0.000610518
0.000735529
0.000827624
0.00035143
0.000355336
0.000546379
0.000531491
0.000568385
0.000587077
0.0005798
0.000556715
0.000531525
0.000531042
0.000573798
0.000611565
0.000569879
0.000540162
0.000542521
0.000553166
0.000571328
0.000623936
0.000747068
0.000802778
0.000368337
0.000386048
0.000686412
0.000684565
0.000720318
0.000729544
0.000716499
0.000682191
0.000625145
0.000557143
0.000513914
0.000518154
0.000530662
0.000574777
0.000612869
0.00062983
0.000641224
0.000687506
0.000767043
0.000720713
0.000386102
0.000415771
0.000648677
0.000920709
0.00105729
0.00117211
0.00124731
0.00125172
0.00116457
0.000987422
0.000786151
0.000751503
0.000877819
0.00103423
0.00111293
0.00108892
0.00100427
0.000935416
0.000894805
0.000672302
0.000407953
0.000447021
0.000490292
0.000526711
0.000561542
0.000595437
0.00062595
0.000652016
0.000672517
0.000686491
0.000692343
0.00066689
0.000650372
0.000632858
0.000611997
0.000586808
0.000557967
0.000527866
0.000499195
0.000467916
0.000429131
0.000102993
0.000124675
0.000138539
0.00014814
0.000153555
0.000154689
0.000150075
0.000143549
0.00014596
0.000164327
0.000159864
0.000158766
0.000159895
0.00015626
0.000155057
0.000158773
0.000180645
0.000220105
0.000233172
0.000225522
0.000123138
0.000246326
0.000289172
0.000306267
0.00031674
0.000338402
0.000360901
0.000394795
0.000496111
0.000450108
0.000350694
0.000309168
0.000297795
0.000295578
0.000294014
0.000290779
0.00028075
0.000284653
0.000278379
0.000226739
0.000162438
0.000280783
0.000343827
0.000374103
0.000387125
0.000403957
0.000430809
0.000479234
0.000557505
0.000494043
0.000405263
0.000368108
0.000357308
0.000358303
0.000362526
0.000356541
0.000356591
0.000369575
0.000368709
0.000264649
0.000187556
0.000288323
0.000364537
0.000406019
0.000431498
0.000455159
0.000477864
0.000515997
0.000569894
0.000522604
0.00046044
0.000429143
0.000411997
0.000413369
0.000416496
0.000425244
0.000446221
0.000482084
0.000495295
0.000299734
0.000253388
0.000304833
0.000370585
0.000423714
0.000454149
0.000474944
0.000495807
0.000526298
0.000562506
0.000528915
0.000516399
0.000495741
0.000467677
0.000461499
0.000470415
0.000493305
0.000538648
0.000611071
0.000666516
0.00032698
0.000308828
0.000351677
0.000384779
0.000440646
0.000477941
0.000496952
0.00050877
0.00052733
0.000547735
0.000509499
0.000534396
0.000546451
0.000512855
0.000504199
0.000516144
0.000545725
0.000603715
0.000701986
0.000801638
0.000348275
0.000349744
0.000460658
0.000447628
0.000498552
0.000540262
0.000556715
0.000556479
0.000554884
0.000556762
0.000513683
0.000549442
0.000590067
0.000561463
0.000556175
0.000569916
0.000596997
0.000649887
0.000748125
0.000811318
0.000367571
0.000383885
0.00066089
0.000612245
0.000656672
0.000680205
0.000682191
0.000660455
0.000614583
0.000559783
0.000508831
0.000515323
0.000539944
0.000576233
0.000613573
0.000637135
0.000661947
0.000717541
0.000786182
0.000730218
0.000387162
0.000416524
0.000633065
0.000875381
0.00103532
0.0011701
0.00125172
0.00124736
0.00112541
0.000915513
0.000753432
0.000734835
0.000834128
0.00101249
0.00112344
0.00112403
0.0010513
0.000972786
0.000911292
0.000678746
0.000410923
0.000452246
0.000498477
0.000537892
0.000577182
0.00061595
0.000652016
0.000684725
0.00071376
0.000739821
0.000762226
0.000729329
0.000697738
0.000668934
0.000640329
0.000609753
0.00057693
0.000543245
0.000510892
0.000476672
0.000435046
0.000102012
0.00011724
0.000124693
0.000129435
0.00013879
0.000143065
0.000143549
0.000143137
0.000150078
0.00017147
0.0001667
0.000160961
0.000157078
0.000149135
0.000149736
0.000151294
0.000149046
0.000141373
0.000144264
0.000134074
0.000129232
0.000304096
0.000337401
0.000353968
0.000369574
0.000388524
0.000394795
0.000423171
0.000499435
0.00040342
0.000329762
0.000350922
0.000369077
0.000369933
0.00035178
0.000349052
0.000337966
0.00028806
0.000243644
0.000192751
0.000133204
0.00031708
0.000390492
0.00042511
0.000441976
0.000460994
0.000479234
0.000496189
0.000497809
0.00037327
0.000321597
0.000372367
0.000406382
0.000410272
0.000394531
0.000378741
0.000352981
0.000324415
0.000303029
0.000247923
0.000161912
0.000279532
0.000371794
0.0004301
0.000467944
0.000493646
0.000515997
0.000526966
0.000479869
0.000410764
0.000359531
0.000389304
0.000428178
0.000422213
0.000406998
0.000398681
0.000393625
0.000393439
0.000391119
0.000286138
0.000228348
0.0002686
0.000342533
0.000411055
0.000459583
0.000495255
0.000526298
0.00053832
0.000474912
0.000476312
0.000427842
0.000425211
0.000470087
0.000456769
0.000446036
0.000451186
0.000472572
0.000511991
0.000551922
0.000316625
0.000298109
0.000304712
0.000333118
0.000398941
0.00045458
0.000494551
0.00052733
0.000537229
0.000472995
0.000546536
0.000500951
0.000451165
0.000512415
0.000503591
0.000499712
0.000515588
0.000557004
0.000632875
0.000739685
0.000341058
0.000342302
0.000398369
0.000379403
0.000437657
0.000495186
0.000531525
0.000554884
0.000561193
0.000503281
0.000608034
0.000581857
0.000507336
0.000564536
0.000560523
0.000566526
0.000589435
0.000634777
0.000711189
0.000793807
0.000362481
0.000378497
0.000612143
0.000531012
0.0005796
0.000612986
0.000625145
0.000614583
0.000589548
0.000563376
0.000660606
0.000641571
0.000530025
0.000561273
0.000594053
0.000622798
0.000655478
0.000713163
0.000771751
0.000718349
0.000383684
0.000413332
0.000595815
0.000791698
0.000965053
0.00110052
0.00116457
0.00112541
0.000977668
0.000887101
0.000977791
0.000920851
0.000807156
0.000913332
0.00104399
0.00108123
0.00103515
0.000961999
0.000883827
0.000658073
0.000408743
0.000454103
0.000502146
0.000543474
0.000586806
0.000630377
0.000672517
0.00071376
0.000756205
0.000803739
0.00085364
0.000810593
0.000751599
0.000703947
0.000663871
0.000626454
0.000589175
0.000552047
0.00051664
0.000480424
0.000437158
0.000100735
0.000116145
0.000124809
0.000132192
0.000138912
0.000143096
0.00014596
0.000150078
0.000155743
0.000177574
0.00017748
0.000171852
0.000167668
0.000167571
0.000169006
0.000167048
0.000160296
0.000150776
0.0001377
0.000124025
0.000129583
0.000333039
0.000379165
0.000414991
0.000450873
0.000483432
0.000496111
0.000499435
0.000441357
0.00046595
0.000440642
0.000408076
0.000436743
0.000393724
0.000348514
0.000322367
0.000326207
0.000330469
0.000269393
0.000167505
0.000143123
0.000393261
0.000463705
0.000509132
0.000543026
0.000565064
0.000557505
0.000497809
0.000409218
0.000672162
0.000608298
0.000372445
0.000419552
0.000442911
0.000405123
0.000376663
0.000354344
0.000314925
0.000272844
0.000229052
0.000143777
0.00033445
0.00044071
0.000506138
0.000555415
0.000580388
0.000569894
0.000479869
0.000468369
0.000920664
0.000813868
0.000403652
0.000388268
0.000452087
0.000415156
0.000376872
0.000354594
0.000336688
0.000327019
0.000273289
0.000210355
0.000272145
0.000372193
0.000458166
0.00052111
0.000560435
0.000562506
0.000474912
0.000580458
0.00117875
0.00101512
0.000461926
0.000397046
0.000464304
0.000430415
0.000403854
0.000403486
0.000422093
0.000452464
0.000305911
0.000287017
0.000284869
0.000322422
0.000405346
0.000478551
0.000531719
0.000547735
0.000472995
0.000708362
0.00141658
0.00120021
0.000529711
0.000425075
0.000498195
0.000475756
0.000464113
0.00048602
0.000547939
0.000656362
0.000331678
0.000333484
0.000358241
0.000341659
0.000407435
0.000478091
0.000531042
0.000556762
0.000503281
0.000821445
0.00159338
0.00134553
0.000610541
0.000484652
0.000553755
0.000547781
0.000552239
0.000583098
0.000649617
0.000767971
0.00035362
0.00037057
0.000560024
0.000464144
0.00050528
0.000540128
0.000557143
0.000559783
0.000563376
0.000915175
0.00167266
0.00144796
0.000672058
0.000527872
0.000559317
0.000586835
0.000620191
0.000674036
0.000729677
0.000696985
0.000375462
0.000406343
0.000545212
0.000688749
0.000855873
0.000966459
0.000987422
0.000915513
0.000887101
0.0011528
0.00155773
0.00141674
0.00094568
0.000805927
0.000892537
0.000965921
0.000956617
0.00090214
0.000821394
0.000619039
0.000401412
0.000452062
0.000500498
0.000542296
0.00058913
0.000637329
0.000686491
0.000739821
0.000803739
0.000882327
0.000955489
0.000907876
0.000812502
0.00073761
0.000681368
0.000635413
0.0005933
0.000552956
0.000515153
0.00047844
0.000435023
9.98373e-05
0.000116533
0.000127776
0.000138216
0.000148765
0.000157026
0.000164327
0.00017147
0.000177574
0.000299506
0.000371157
0.00021218
0.000210447
0.000207427
0.000205643
0.000201169
0.000191022
0.000172499
0.000136815
0.000122103
0.000126003
0.000297248
0.000333504
0.000362205
0.000396392
0.00043229
0.000450108
0.00040342
0.00046595
0.000323219
0.000383262
0.000458407
0.000368527
0.000353248
0.000326043
0.00030635
0.000288151
0.000272088
0.000254657
0.000152467
0.00013915
0.000378451
0.000428446
0.000460257
0.000491974
0.000519157
0.000494043
0.00037327
0.000672162
0.000469938
0.000526039
0.000580608
0.000368552
0.000413651
0.000381094
0.000346145
0.000317415
0.000289784
0.000253547
0.000217463
0.000140372
0.000398221
0.000488274
0.000546698
0.000588324
0.000600137
0.000522604
0.000410764
0.000920664
0.000612976
0.000665997
0.000716641
0.000346104
0.000445958
0.000412414
0.000361146
0.000324684
0.000302179
0.000295139
0.000266135
0.000202692
0.000298507
0.000432929
0.000539067
0.000608099
0.000629123
0.000528915
0.000476312
0.00117875
0.000756872
0.000813246
0.000870444
0.000350733
0.000463404
0.000442799
0.00038517
0.000360997
0.000367872
0.00039732
0.000299302
0.000277606
0.000287192
0.000347157
0.000465563
0.000560273
0.000602292
0.000509499
0.000546536
0.00141658
0.000901227
0.000969148
0.00101989
0.000380665
0.000481062
0.000484576
0.000436738
0.000432616
0.000483916
0.00059163
0.000324818
0.000323307
0.000345667
0.000339397
0.000425294
0.000517676
0.000573798
0.000513683
0.000608034
0.00159338
0.00103511
0.0011237
0.00113244
0.000438082
0.000526047
0.000545772
0.000520762
0.000528952
0.000592296
0.000747909
0.000345904
0.000359539
0.000530623
0.000428986
0.000459909
0.00049437
0.000513914
0.000508831
0.000660606
0.00167266
0.00114489
0.00125314
0.00117776
0.000500374
0.00052811
0.000552812
0.000577127
0.000622318
0.000678636
0.000676915
0.000366426
0.000394166
0.000492454
0.000598666
0.000740139
0.000811875
0.000786151
0.000753432
0.000977791
0.00155773
0.00124363
0.00133667
0.00120551
0.000794632
0.000740992
0.000830556
0.000856162
0.000821921
0.000748365
0.000573422
0.000390179
0.000443258
0.000490942
0.000531835
0.000581744
0.000634663
0.000692343
0.000762226
0.00085364
0.000955489
0.000899011
0.000921536
0.000860655
0.000764342
0.000689939
0.000634707
0.000587917
0.000544698
0.000504987
0.000468877
0.000426124
9.87442e-05
0.000117002
0.000129547
0.000140012
0.000148426
0.000155209
0.000159864
0.0001667
0.00017748
0.000371157
0.000527751
0.000245098
0.00024275
0.000242808
0.000242483
0.000239327
0.000231025
0.000214819
0.000186168
0.000128003
0.000118582
0.000249783
0.000275216
0.000287093
0.000300456
0.00032722
0.000350694
0.000329762
0.000440642
0.000383262
0.000481879
0.000420085
0.000358634
0.000348838
0.000339671
0.000327542
0.000306969
0.000275819
0.000230368
0.000149125
0.000128647
0.000311857
0.000344763
0.00036506
0.000382277
0.000403631
0.000405263
0.000321597
0.000608298
0.000526039
0.000605246
0.000484787
0.000404139
0.000405851
0.000384592
0.000353629
0.000313579
0.000273675
0.000243566
0.0002162
0.000133585
0.000363797
0.000428539
0.000455359
0.000476
0.000491271
0.00046044
0.000359531
0.000813868
0.000665997
0.000742201
0.000522233
0.000415589
0.000450719
0.000415134
0.000365385
0.000317781
0.000290367
0.000284975
0.000265126
0.000213952
0.000283062
0.00040731
0.00049827
0.000550831
0.000577389
0.000516399
0.000427842
0.00101512
0.000813246
0.000898602
0.000585746
0.000413298
0.000497936
0.000456224
0.000394955
0.000352141
0.000349753
0.000378736
0.000298301
0.000281672
0.000286199
0.000339459
0.00046294
0.000562226
0.000611902
0.000534396
0.000500951
0.00120021
0.000969148
0.00107038
0.000680412
0.000427959
0.000553902
0.000518347
0.000450021
0.000417687
0.000457787
0.000567311
0.000323787
0.000324492
0.000347121
0.000337288
0.000433692
0.000546762
0.000611565
0.000549442
0.000581857
0.00134553
0.0011237
0.00124155
0.00078975
0.000487742
0.000602742
0.000584125
0.000529837
0.000507567
0.000561429
0.00073442
0.000344976
0.000358678
0.000522948
0.000418128
0.000448253
0.000489282
0.000518154
0.000515323
0.000641571
0.00144796
0.00125314
0.00139558
0.000860648
0.000536262
0.000563504
0.000564994
0.000567225
0.000594634
0.000645558
0.000654144
0.000365666
0.00039151
0.000476415
0.000577686
0.000706178
0.000768807
0.000751503
0.000734835
0.000920851
0.00141674
0.00133667
0.00143459
0.00101013
0.000769751
0.000759852
0.000822782
0.000836665
0.00079823
0.000720335
0.000546105
0.000390112
0.000438584
0.000483716
0.000521956
0.000567077
0.000614863
0.00066689
0.000729329
0.000810593
0.000907876
0.000921536
0.000949871
0.000840829
0.000751109
0.000683532
0.000630935
0.000585675
0.000543929
0.000505659
0.00047012
0.000427954
9.92024e-05
0.000122821
0.000136714
0.000143723
0.00015382
0.000157608
0.000158766
0.000160961
0.000171852
0.00021218
0.000245098
0.000254545
0.000260884
0.000265411
0.000268012
0.000267884
0.000263943
0.000254585
0.000237212
0.000205717
0.000111891
0.000225299
0.000243964
0.000250696
0.000256698
0.000278419
0.000309168
0.000350922
0.000408076
0.000458407
0.000420085
0.000372302
0.000379768
0.00038644
0.000389846
0.000383336
0.000361787
0.00032223
0.00026457
0.000170809
0.000120679
0.000277745
0.000310519
0.000324635
0.000331697
0.000347815
0.000368108
0.000372367
0.000372445
0.000580608
0.000484787
0.000411308
0.000432478
0.000435372
0.000425134
0.000397973
0.000354137
0.000301899
0.000257306
0.000220989
0.000134263
0.000295698
0.000372964
0.000395733
0.000406029
0.00041829
0.000429143
0.000389304
0.000403652
0.000716641
0.000522233
0.000412698
0.000473362
0.000472893
0.000448043
0.000400473
0.000342411
0.000301099
0.000290531
0.000268266
0.000228233
0.000264419
0.000358481
0.000431494
0.0004666
0.000487757
0.000495741
0.000425211
0.000461926
0.000870444
0.000585746
0.000402806
0.000511027
0.000514482
0.00048077
0.000423593
0.000368136
0.000356335
0.000384713
0.000301053
0.000288061
0.000287621
0.000322776
0.000414644
0.00049006
0.000534895
0.000546451
0.000451165
0.000529711
0.00101989
0.000680412
0.000415604
0.000554675
0.000574296
0.000539484
0.000481074
0.000433722
0.000462641
0.000577981
0.000326519
0.000328619
0.00035552
0.000336183
0.00041393
0.000507623
0.000569879
0.000590067
0.000507336
0.000610541
0.00113244
0.00078975
0.000490336
0.00060775
0.000636605
0.000612665
0.000566477
0.000526016
0.000560525
0.000727398
0.000347988
0.000361674
0.000528053
0.00042595
0.000460232
0.000500907
0.000530662
0.000539944
0.000530025
0.000672058
0.00117776
0.000860648
0.000575659
0.000610895
0.000626632
0.000620082
0.000605281
0.000610745
0.000645202
0.000641338
0.000369097
0.000394077
0.00048883
0.000615532
0.000763219
0.000856017
0.000877819
0.000834128
0.000807156
0.00094568
0.00120551
0.00101013
0.000815728
0.000838833
0.000909037
0.000940453
0.000914567
0.000847322
0.000747936
0.000553592
0.000394624
0.000439114
0.000483537
0.000521449
0.000563078
0.000606146
0.000650372
0.000697738
0.000751599
0.000812502
0.000860655
0.000840829
0.000774451
0.000717106
0.000668259
0.000624984
0.000584649
0.000545941
0.000509547
0.000473942
0.000431849
0.000110674
0.000134048
0.00016256
0.000188897
0.000191676
0.000166477
0.000159895
0.000157078
0.000167668
0.000210447
0.00024275
0.000260884
0.000272053
0.000279373
0.000283939
0.000285905
0.000284897
0.000280102
0.000270595
0.000256609
0.000132546
0.000221856
0.00024152
0.000251538
0.000253061
0.000262958
0.000297795
0.000369077
0.000436743
0.000368527
0.000358634
0.000379768
0.000409251
0.000436098
0.000453844
0.00045618
0.000438026
0.000394711
0.000321433
0.000204659
0.000139778
0.000278986
0.000307544
0.000315785
0.000319964
0.000336314
0.000357308
0.000406382
0.000419552
0.000368552
0.000404139
0.000432478
0.000461408
0.000484351
0.000488981
0.000467395
0.000419443
0.000354237
0.000291319
0.00023069
0.000156106
0.000295884
0.000357668
0.000377186
0.000384196
0.000399273
0.000411997
0.000428178
0.000388268