/*--------------------------------*- C++ -*----------------------------------*\
  =========                 |
  \\      /  F ield         | OpenFOAM: The Open Source CFD Toolbox
   \\    /   O peration     | Website:  https://openfoam.org
    \\  /    A nd           | Version:  8
     \\/     M anipulation  |
\*---------------------------------------------------------------------------*/
FoamFile
{
    version     2.0;
    format      ascii;
    class       volScalarField;
    location    "1600";
    object      epsilon;
}
// * * * * * * * * * * * * * * * * * * * * * * * * * * * * * * * * * * * * * //

dimensions      [0 2 -3 0 0 0 0];

internalField   nonuniform List<scalar> 
4000
(
2.85107e-07
2.62703e-07
2.31021e-07
2.00445e-07
1.54996e-07
2.9082e-08
1.00533e-08
9.71501e-09
9.3424e-09
9.08002e-09
8.79658e-09
8.97355e-09
1.25949e-08
4.00431e-08
1.28849e-07
1.64152e-07
1.85579e-07
2.01745e-07
2.26683e-07
2.54398e-07
3.17574e-07
2.8786e-07
2.31071e-07
1.72258e-07
1.3381e-07
5.17421e-08
1.71294e-08
1.97446e-08
1.98687e-08
1.83024e-08
1.52231e-08
1.29745e-08
2.1764e-08
4.22851e-08
9.89786e-08
1.15119e-07
1.31874e-07
1.69061e-07
2.32957e-07
2.84599e-07
3.36848e-07
3.12452e-07
2.48117e-07
1.53247e-07
1.16189e-07
6.75432e-08
3.93672e-08
2.17491e-08
2.67818e-08
2.46594e-08
1.94989e-08
1.62849e-08
2.54166e-08
3.81169e-08
7.51581e-08
8.06289e-08
8.06934e-08
1.52598e-07
2.47112e-07
3.02132e-07
3.47149e-07
3.32844e-07
2.78675e-07
2.03696e-07
1.20018e-07
8.72634e-08
6.08339e-08
3.91782e-08
2.73504e-08
2.53576e-08
2.18526e-08
2.21995e-08
3.47436e-08
5.76901e-08
6.83715e-08
8.80109e-08
1.30946e-07
1.94571e-07
2.67491e-07
3.11118e-07
3.5481e-07
3.53767e-07
3.21894e-07
2.72983e-07
2.22442e-07
1.84728e-07
1.49254e-07
1.08634e-07
8.45294e-08
7.55089e-08
8.89092e-08
1.08144e-07
1.26547e-07
1.45484e-07
1.6347e-07
1.85645e-07
2.16547e-07
2.57687e-07
2.99787e-07
3.19862e-07
3.62809e-07
3.779e-07
3.70048e-07
3.49334e-07
3.22852e-07
2.96435e-07
2.69233e-07
2.41817e-07
2.15483e-07
1.94757e-07
2.03436e-07
2.17597e-07
2.33074e-07
2.48553e-07
2.63028e-07
2.78074e-07
2.95464e-07
3.14837e-07
3.30017e-07
3.28049e-07
3.72391e-07
4.04558e-07
4.19735e-07
4.24364e-07
4.21345e-07
4.09794e-07
3.90525e-07
3.65775e-07
3.37875e-07
3.07601e-07
3.10993e-07
3.22978e-07
3.36525e-07
3.48783e-07
3.58059e-07
3.63973e-07
3.66491e-07
3.65525e-07
3.57941e-07
3.3603e-07
3.8514e-07
4.36612e-07
4.74283e-07
5.01772e-07
5.19702e-07
5.25014e-07
5.16011e-07
4.94209e-07
4.63415e-07
4.22909e-07
4.19928e-07
4.30479e-07
4.42552e-07
4.51404e-07
4.53717e-07
4.47945e-07
4.3469e-07
4.15246e-07
3.87431e-07
3.45896e-07
4.04319e-07
4.80667e-07
5.44639e-07
5.95291e-07
6.33127e-07
6.55268e-07
6.58567e-07
6.4312e-07
6.10582e-07
5.56957e-07
5.45905e-07
5.56635e-07
5.6757e-07
5.7145e-07
5.63784e-07
5.43666e-07
5.13492e-07
4.75463e-07
4.26325e-07
3.61672e-07
4.34949e-07
5.39509e-07
6.33177e-07
7.07836e-07
7.68198e-07
8.13327e-07
8.41827e-07
8.51804e-07
8.39939e-07
7.91507e-07
7.67179e-07
7.70037e-07
7.66475e-07
7.51037e-07
7.22391e-07
6.81085e-07
6.28327e-07
5.64582e-07
4.84038e-07
3.88542e-07
2.62703e-07
2.7519e-07
2.52008e-07
2.1204e-07
1.61319e-07
4.68509e-08
1.78101e-08
1.47052e-08
1.42875e-08
1.44504e-08
1.46696e-08
1.69909e-08
2.2323e-08
7.81957e-08
1.49004e-07
1.85137e-07
2.10357e-07
2.32601e-07
2.59955e-07
2.62198e-07
2.8786e-07
2.85732e-07
2.46031e-07
1.82004e-07
1.41895e-07
7.54893e-08
3.78151e-08
2.06015e-08
1.81895e-08
1.88536e-08
2.10735e-08
2.75386e-08
4.28549e-08
7.46056e-08
1.23954e-07
1.44667e-07
1.49686e-07
1.84911e-07
2.66708e-07
2.97511e-07
3.12452e-07
3.16744e-07
3.00207e-07
2.17991e-07
1.38728e-07
8.50913e-08
5.67264e-08
4.15026e-08
2.9707e-08
2.57498e-08
2.6949e-08
3.4617e-08
4.97914e-08
7.21537e-08
9.10449e-08
9.53204e-08
1.00003e-07
1.81121e-07
3.0664e-07
3.20281e-07
3.32844e-07
3.40907e-07
3.36413e-07
2.61994e-07
1.5076e-07
9.77535e-08
6.73633e-08
4.84907e-08
3.717e-08
3.29227e-08
3.25592e-08
3.79227e-08
5.11058e-08
7.03206e-08
8.19934e-08
8.77806e-08
1.09637e-07
2.14482e-07
3.48555e-07
3.33649e-07
3.53767e-07
3.6215e-07
3.61568e-07
3.06849e-07
2.06189e-07
1.47066e-07
1.05984e-07
7.30369e-08
5.47916e-08
4.96095e-08
5.31276e-08
6.27152e-08
8.00392e-08
1.01216e-07
1.18479e-07
1.35991e-07
1.80578e-07
2.76293e-07
3.62279e-07
3.44166e-07
3.779e-07
3.7558e-07
3.71448e-07
3.43174e-07
2.78031e-07
2.14539e-07
1.68289e-07
1.31772e-07
1.0843e-07
9.93012e-08
1.03207e-07
1.11719e-07
1.26471e-07
1.47759e-07
1.70399e-07
1.97092e-07
2.47719e-07
3.1337e-07
3.5364e-07
3.53954e-07
4.04558e-07
3.84605e-07
3.70371e-07
3.56256e-07
3.41655e-07
2.94326e-07
2.3768e-07
1.96198e-07
1.64657e-07
1.49953e-07
1.52221e-07
1.59911e-07
1.72964e-07
1.91808e-07
2.19543e-07
2.53978e-07
2.84545e-07
3.14808e-07
3.36211e-07
3.66494e-07
4.36612e-07
4.07225e-07
3.91822e-07
3.89702e-07
4.01617e-07
4.00103e-07
3.78256e-07
3.34949e-07
2.81259e-07
2.43708e-07
2.4341e-07
2.60466e-07
2.81895e-07
3.01733e-07
3.1357e-07
3.1543e-07
3.13189e-07
3.19974e-07
3.43391e-07
3.86468e-07
4.80667e-07
4.95117e-07
5.15787e-07
5.39941e-07
5.6734e-07
5.87422e-07
5.83091e-07
5.49385e-07
4.88104e-07
4.05331e-07
4.00024e-07
4.29795e-07
4.58343e-07
4.74766e-07
4.7026e-07
4.48039e-07
4.24469e-07
4.14157e-07
4.17662e-07
4.18413e-07
5.39509e-07
6.71694e-07
7.94699e-07
9.0092e-07
9.95214e-07
1.0728e-06
1.12704e-06
1.15151e-06
1.13957e-06
1.07514e-06
1.02903e-06
1.02802e-06
1.01533e-06
9.82484e-07
9.28335e-07
8.56705e-07
7.74379e-07
6.85757e-07
5.8352e-07
4.68708e-07
2.31021e-07
2.52008e-07
2.32661e-07
1.99007e-07
1.50078e-07
4.0824e-08
2.46053e-08
1.76701e-08
1.76969e-08
1.9059e-08
1.98952e-08
2.32932e-08
4.09099e-08
1.09355e-07
1.61433e-07
1.95651e-07
2.21774e-07
2.45764e-07
2.6956e-07
2.58801e-07
2.31071e-07
2.46031e-07
2.15462e-07
1.69375e-07
1.32572e-07
7.73509e-08
4.68711e-08
2.62849e-08
2.27418e-08
2.53269e-08
2.89942e-08
3.77648e-08
5.68917e-08
9.54203e-08
1.34148e-07
1.51422e-07
1.5934e-07
1.97528e-07
2.73831e-07
2.93185e-07
2.48117e-07
3.00207e-07
3.00823e-07
2.19718e-07
1.39701e-07
8.99119e-08
6.60218e-08
5.17063e-08
3.67914e-08
3.3059e-08
3.50889e-08
4.46746e-08
6.26442e-08
8.36557e-08
1.01095e-07
1.10449e-07
1.29797e-07
2.04839e-07
3.23194e-07
3.19331e-07
2.78675e-07
3.36413e-07
3.2852e-07
2.55778e-07
1.57668e-07
1.03025e-07
7.42667e-08
5.77259e-08
4.58313e-08
3.98783e-08
4.19156e-08
4.89439e-08
6.20125e-08
7.8849e-08
8.54551e-08
8.96873e-08
1.13891e-07
2.29315e-07
3.73813e-07
3.37197e-07
3.21894e-07
3.61568e-07
3.36757e-07
2.75345e-07
1.80617e-07
1.2357e-07
8.89001e-08
6.41936e-08
4.83033e-08
4.11253e-08
4.27967e-08
5.29451e-08
6.58806e-08
8.06375e-08
8.96058e-08
9.69107e-08
1.31897e-07
2.4998e-07
3.93868e-07
3.52566e-07
3.70048e-07
3.71448e-07
3.30937e-07
2.78627e-07
2.03186e-07
1.47991e-07
1.10109e-07
8.07587e-08
6.08745e-08
5.21749e-08
5.37013e-08
6.18621e-08
7.47216e-08
8.97536e-08
1.02384e-07
1.15659e-07
1.57717e-07
2.59391e-07
3.70161e-07
3.69917e-07
4.19735e-07
3.70371e-07
3.12442e-07
2.57268e-07
2.12276e-07
1.70424e-07
1.33288e-07
1.02729e-07
8.00063e-08
6.93056e-08
6.96058e-08
7.57717e-08
8.68034e-08
9.99796e-08
1.13325e-07
1.29918e-07
1.64858e-07
2.38027e-07
3.35512e-07
3.94048e-07
4.74283e-07
3.91822e-07
3.3013e-07
2.57987e-07
2.365e-07
2.18075e-07
1.91431e-07
1.59664e-07
1.28494e-07
1.07507e-07
1.02568e-07
1.08561e-07
1.20367e-07
1.33562e-07
1.43536e-07
1.51462e-07
1.70021e-07
2.3701e-07
3.3598e-07
4.27348e-07
5.44639e-07
5.15787e-07
5.47808e-07
6.01708e-07
6.33512e-07
6.67608e-07
6.577e-07
5.86475e-07
4.76593e-07
3.66558e-07
3.41343e-07
3.87008e-07
4.48762e-07
4.9053e-07
4.80443e-07
4.31567e-07
4.12145e-07
4.13162e-07
4.37238e-07
4.7745e-07
6.33177e-07
7.94699e-07
9.46263e-07
1.08428e-06
1.21476e-06
1.32993e-06
1.41611e-06
1.45998e-06
1.4497e-06
1.36698e-06
1.29309e-06
1.28949e-06
1.26676e-06
1.21337e-06
1.12885e-06
1.02241e-06
9.10613e-07
8.01325e-07
6.81678e-07
5.47888e-07
2.00445e-07
2.1204e-07
1.99007e-07
1.69727e-07
1.19465e-07
3.29676e-08
3.01444e-08
1.9916e-08
2.09781e-08
2.40963e-08
2.50654e-08
2.69807e-08
6.33045e-08
1.19404e-07
1.60165e-07
1.91676e-07
2.17198e-07
2.39622e-07
2.58428e-07
2.43452e-07
1.72258e-07
1.82004e-07
1.69375e-07
1.43517e-07
1.09635e-07
7.27048e-08
4.66434e-08
3.02523e-08
2.88448e-08
3.27411e-08
3.60424e-08
4.63249e-08
6.71663e-08
1.03642e-07
1.33985e-07
1.50626e-07
1.63236e-07
1.97054e-07
2.58935e-07
2.71807e-07
1.53247e-07
2.17991e-07
2.19718e-07
1.64845e-07
1.14568e-07
8.28594e-08
6.61173e-08
5.12897e-08
4.12589e-08
4.09116e-08
4.26889e-08
5.28384e-08
6.92567e-08
8.96655e-08
1.07847e-07
1.24102e-07
1.53943e-07
2.20518e-07
3.16297e-07
3.02695e-07
2.03696e-07
2.61994e-07
2.55778e-07
1.97192e-07
1.32657e-07
9.50026e-08
7.41943e-08
6.11928e-08
5.09137e-08
4.88007e-08
4.88418e-08
5.54536e-08
6.88759e-08
8.22351e-08
9.15331e-08
1.05398e-07
1.43771e-07
2.43411e-07
3.70787e-07
3.30083e-07
2.72983e-07
3.06849e-07
2.75345e-07
2.18578e-07
1.51413e-07
1.08894e-07
8.24553e-08
6.37821e-08
5.11076e-08
4.73123e-08
4.86999e-08
5.42375e-08
6.62746e-08
7.8697e-08
8.41626e-08
9.32316e-08
1.29975e-07
2.45707e-07
3.99761e-07
3.56947e-07
3.49334e-07
3.43174e-07
2.78627e-07
2.21166e-07
1.62695e-07
1.20975e-07
9.14306e-08
6.83026e-08
5.17093e-08
4.41513e-08
4.45472e-08
5.11868e-08
6.27636e-08
7.57213e-08
8.25935e-08
8.96053e-08
1.24837e-07
2.30613e-07
3.90578e-07
3.86343e-07
4.24364e-07
3.56256e-07
2.57268e-07
2.03126e-07
1.6351e-07
1.3207e-07
1.05056e-07
8.07805e-08
6.11115e-08
5.01036e-08
4.83356e-08
5.44049e-08
6.56445e-08
7.70511e-08
8.45746e-08
9.07941e-08
1.19379e-07
2.00519e-07
3.50105e-07
4.22514e-07
5.01772e-07
3.89702e-07
2.57987e-07
2.22554e-07
2.1979e-07
2.17032e-07
2.02329e-07
1.72999e-07
1.35586e-07
1.03226e-07
9.18193e-08
1.03529e-07
1.26765e-07
1.44527e-07
1.4378e-07
1.33218e-07
1.41138e-07
1.98882e-07
3.51488e-07
4.69071e-07
5.95291e-07
5.39941e-07
6.01708e-07
6.86659e-07
8.31321e-07
9.67931e-07
1.02017e-06
9.66919e-07
8.25649e-07
6.46995e-07
5.84775e-07
6.61311e-07
7.59892e-07
7.94801e-07
7.23599e-07
5.87849e-07
4.84706e-07
4.78365e-07
4.80742e-07
5.35385e-07
7.07836e-07
9.0092e-07
1.08428e-06
1.26019e-06
1.44138e-06
1.61149e-06
1.74971e-06
1.83821e-06
1.85966e-06
1.79048e-06
1.65967e-06
1.62493e-06
1.56993e-06
1.47765e-06
1.34739e-06
1.19319e-06
1.04395e-06
9.12795e-07
7.72584e-07
6.15812e-07
1.54996e-07
1.61319e-07
1.50078e-07
1.19465e-07
8.23164e-08
3.36442e-08
3.35402e-08
2.47765e-08
2.43709e-08
3.00101e-08
2.97629e-08
3.3138e-08
6.59241e-08
9.93264e-08
1.31735e-07
1.68615e-07
1.94206e-07
2.13782e-07
2.27317e-07
2.15659e-07
1.3381e-07
1.41895e-07
1.32572e-07
1.09635e-07
8.26276e-08
6.32178e-08
4.38106e-08
3.33981e-08
3.62229e-08
4.02791e-08
3.9869e-08
4.87954e-08
6.68211e-08
9.33869e-08
1.18793e-07
1.41096e-07
1.57286e-07
1.80946e-07
2.25249e-07
2.32813e-07
1.16189e-07
1.38728e-07
1.39701e-07
1.14568e-07
8.99664e-08
7.35376e-08
5.96915e-08
4.61954e-08
4.45222e-08
4.74898e-08
4.64192e-08
5.47955e-08
6.9375e-08
8.66795e-08
1.03855e-07
1.25403e-07
1.60713e-07
2.21534e-07
2.98029e-07
2.70751e-07
1.20018e-07
1.5076e-07
1.57668e-07
1.32657e-07
1.03012e-07
8.30054e-08
7.03501e-08
6.00875e-08
5.25049e-08
5.60875e-08
5.29387e-08
5.73931e-08
6.91344e-08
8.16922e-08
9.41943e-08
1.161e-07
1.62469e-07
2.50003e-07
3.58317e-07
3.12321e-07
2.22442e-07
2.06189e-07
1.80617e-07
1.51413e-07
1.18103e-07
9.355e-08
7.59678e-08
6.24958e-08
5.34519e-08
5.60426e-08
5.61108e-08
5.71126e-08
6.69959e-08
7.76363e-08
8.63306e-08
1.03461e-07
1.47189e-07
2.45939e-07
3.94485e-07
3.5387e-07
3.22852e-07
2.78031e-07
2.03186e-07
1.62695e-07
1.28846e-07
1.0224e-07
8.11047e-08
6.39108e-08
5.18252e-08
5.00882e-08
5.21023e-08
5.32798e-08
6.25424e-08
7.35617e-08
8.05128e-08
9.09877e-08
1.24684e-07
2.18601e-07
3.99261e-07
3.96454e-07
4.21345e-07
3.41655e-07
2.12276e-07
1.6351e-07
1.36201e-07
1.14841e-07
9.52707e-08
7.66569e-08
6.10401e-08
5.40073e-08
5.49072e-08
5.80335e-08
6.61702e-08
7.57591e-08
8.12673e-08
8.5092e-08
1.09123e-07
1.84376e-07
3.65672e-07
4.45264e-07
5.19702e-07
4.01617e-07
2.365e-07
2.1979e-07
2.30359e-07
2.40202e-07
2.35305e-07
2.09282e-07
1.66442e-07
1.24994e-07
1.09397e-07
1.26626e-07
1.59982e-07
1.76425e-07
1.68662e-07
1.46217e-07
1.45453e-07
1.94856e-07
3.73658e-07
5.04116e-07
6.33127e-07
5.6734e-07
6.33512e-07
8.31321e-07
1.09861e-06
1.32433e-06
1.42942e-06
1.377e-06
1.16623e-06
8.91038e-07
7.84431e-07
9.07559e-07
1.06903e-06
1.10686e-06
9.90717e-07
7.92745e-07
6.25224e-07
5.55427e-07
5.30432e-07
5.85618e-07
7.68198e-07
9.95214e-07
1.21476e-06
1.44138e-06
1.68561e-06
1.92106e-06
2.12636e-06
2.27907e-06
2.35534e-06
2.32646e-06
2.11732e-06
2.02876e-06
1.92196e-06
1.77608e-06
1.59269e-06
1.38907e-06
1.19474e-06
1.02874e-06
8.60067e-07
6.74942e-07
2.9082e-08
4.68509e-08
4.0824e-08
3.29676e-08
3.36442e-08
3.64895e-08
3.42915e-08
2.71747e-08
2.67555e-08
3.53571e-08
3.40435e-08
3.56603e-08
4.28436e-08
4.81002e-08
6.34685e-08
9.72444e-08
1.46256e-07
1.7128e-07
1.81459e-07
1.75311e-07
5.17421e-08
7.54893e-08
7.73509e-08
7.27048e-08
6.32178e-08
4.92371e-08
3.74867e-08
3.15039e-08
4.1281e-08
4.50508e-08
3.90971e-08
4.27547e-08
5.14106e-08
6.2701e-08
7.86361e-08
1.04734e-07
1.31835e-07
1.46983e-07
1.62152e-07
1.71409e-07
6.75432e-08
8.50913e-08
8.99119e-08
8.28594e-08
7.35376e-08
6.27868e-08
5.02427e-08
4.05678e-08
4.52769e-08
5.0425e-08
4.44456e-08
4.87485e-08
5.97893e-08
7.13978e-08
8.35427e-08
1.02807e-07
1.31858e-07
1.76235e-07
2.36583e-07
2.20505e-07
8.72634e-08
9.77535e-08
1.03025e-07
9.50026e-08
8.30054e-08
7.3205e-08
6.43456e-08
5.42423e-08
5.00861e-08
5.88216e-08
5.19237e-08
5.2892e-08
6.22553e-08
7.36366e-08
8.59414e-08
1.05689e-07
1.44131e-07
2.15274e-07
3.1641e-07
2.83348e-07
1.84728e-07
1.47066e-07
1.2357e-07
1.08894e-07
9.355e-08
8.00422e-08
6.88579e-08
5.93483e-08
5.3449e-08
6.22662e-08
6.01652e-08
5.54813e-08
6.2009e-08
7.24577e-08
8.43743e-08
1.0382e-07
1.4537e-07
2.29744e-07
3.68346e-07
3.42017e-07
2.96435e-07
2.14539e-07
1.47991e-07
1.20975e-07
1.0224e-07
8.60708e-08
7.19839e-08
6.03225e-08
5.31553e-08
5.91166e-08
6.20414e-08
5.49494e-08
5.93905e-08
6.89589e-08
7.94416e-08
9.49201e-08
1.29343e-07
2.09618e-07
3.88967e-07
3.97108e-07
4.09794e-07
2.94326e-07
1.70424e-07
1.3207e-07
1.14841e-07
1.01516e-07
8.86867e-08
7.59286e-08
6.55625e-08
6.60947e-08
7.09029e-08
6.65526e-08
6.87048e-08
7.52246e-08
8.16688e-08
8.93533e-08
1.10852e-07
1.76155e-07
3.70918e-07
4.56834e-07
5.25014e-07
4.00103e-07
2.18075e-07
2.17032e-07
2.40202e-07
2.62088e-07
2.66907e-07
2.42937e-07
1.93111e-07
1.46066e-07
1.30064e-07
1.53147e-07
1.93122e-07
2.08692e-07
1.96162e-07
1.70455e-07
1.61745e-07
2.00441e-07
3.87013e-07
5.2584e-07
6.55268e-07
5.87422e-07
6.67608e-07
9.67931e-07
1.32433e-06
1.62447e-06
1.78651e-06
1.72105e-06
1.41608e-06
1.08128e-06
9.43777e-07
1.1044e-06
1.34175e-06
1.40795e-06
1.25687e-06
9.89478e-07
7.49174e-07
6.12649e-07
5.65961e-07
6.20265e-07
8.13327e-07
1.0728e-06
1.32993e-06
1.61149e-06
1.92106e-06
2.2317e-06
2.52221e-06
2.76784e-06
2.94475e-06
3.02212e-06
2.70361e-06
2.50839e-06
2.31115e-06
2.08982e-06
1.84228e-06
1.58434e-06
1.34231e-06
1.13584e-06
9.35673e-07
7.21753e-07
1.00533e-08
1.78101e-08
2.46053e-08
3.01444e-08
3.35402e-08
3.42915e-08
3.13487e-08
2.73948e-08
2.85111e-08
4.06627e-08
3.73329e-08
3.65864e-08
3.75977e-08
3.52063e-08
3.4449e-08
3.73129e-08
5.46095e-08
9.71503e-08
1.15631e-07
1.05019e-07
1.71294e-08
3.78151e-08
4.68711e-08
4.66434e-08
4.38106e-08
3.74867e-08
3.13967e-08
2.87377e-08
4.4338e-08
5.19578e-08
3.8381e-08
3.59044e-08
3.83358e-08
4.02226e-08
4.44557e-08
6.01278e-08
7.81458e-08
9.5912e-08
1.05083e-07
1.06729e-07
3.93672e-08
5.67264e-08
6.60218e-08
6.61173e-08
5.96915e-08
5.02427e-08
4.15732e-08
3.63171e-08
4.76654e-08
5.94393e-08
4.44091e-08
4.06211e-08
4.59075e-08
5.40856e-08
6.44082e-08
7.55105e-08
9.1516e-08
1.17357e-07
1.5524e-07
1.71169e-07
6.08339e-08
6.73633e-08
7.42667e-08
7.41943e-08
7.03501e-08
6.43456e-08
5.56808e-08
4.82355e-08
5.316e-08
7.81783e-08
5.82404e-08
4.69177e-08
5.146e-08
6.04844e-08
7.14142e-08
8.70565e-08
1.119e-07
1.57205e-07
2.31847e-07
2.47727e-07
1.49254e-07
1.05984e-07
8.89001e-08
8.24553e-08
7.59678e-08
6.88579e-08
6.21187e-08
5.64175e-08
6.01586e-08
9.79426e-08
8.0633e-08
5.39545e-08
5.45722e-08
6.25097e-08
7.4622e-08
9.34082e-08
1.26442e-07
1.91139e-07
3.13925e-07
3.20689e-07
2.69233e-07
1.68289e-07
1.10109e-07
9.14306e-08
8.11047e-08
7.19839e-08
6.37983e-08
5.81495e-08
6.36551e-08
1.12195e-07
1.01e-07
5.87695e-08
5.45248e-08
6.12064e-08
7.25764e-08
9.04527e-08
1.22858e-07
1.91291e-07
3.58303e-07
3.86891e-07
3.90525e-07
2.3768e-07
1.33288e-07
1.05056e-07
9.52707e-08
8.86867e-08
8.23196e-08
7.6513e-08
8.0921e-08
1.32522e-07
1.30877e-07
7.93977e-08
7.0176e-08
7.27257e-08
7.89398e-08
8.95751e-08
1.11412e-07
1.65125e-07
3.60322e-07
4.54394e-07
5.16011e-07
3.78256e-07
1.91431e-07
2.02329e-07
2.35305e-07
2.66907e-07
2.78712e-07
2.5444e-07
2.0798e-07
2.07621e-07
1.89154e-07
1.72009e-07
2.08341e-07
2.25622e-07
2.13057e-07
1.88396e-07
1.75906e-07
2.01245e-07
3.83504e-07
5.30648e-07
6.58567e-07
5.83091e-07
6.577e-07
1.02017e-06
1.42942e-06
1.78651e-06
1.9797e-06
1.85583e-06
1.51713e-06
1.48452e-06
1.24681e-06
1.22554e-06
1.47354e-06
1.57416e-06
1.41705e-06
1.12381e-06
8.33437e-07
6.34629e-07
5.73697e-07
6.34577e-07
8.41827e-07
1.12704e-06
1.41611e-06
1.74971e-06
2.12636e-06
2.52221e-06
2.9214e-06
3.30986e-06
3.68744e-06
4.03465e-06
3.53761e-06
3.09932e-06
2.73186e-06
2.39627e-06
2.06943e-06
1.75358e-06
1.4648e-06
1.21901e-06
9.90319e-07
7.52795e-07
9.71501e-09
1.47052e-08
1.76701e-08
1.9916e-08
2.47765e-08
2.71747e-08
2.73948e-08
2.71336e-08
3.10529e-08
4.63448e-08
4.24503e-08
3.82227e-08
3.56958e-08
3.0748e-08
3.06849e-08
3.14065e-08
3.01165e-08
2.57643e-08
2.7195e-08
2.20404e-08
1.97446e-08
2.06015e-08
2.62849e-08
3.02523e-08
3.33981e-08
3.15039e-08
2.87377e-08
3.07952e-08
5.60581e-08
8.15599e-08
5.73422e-08
4.08071e-08
4.01359e-08
3.9253e-08
3.7053e-08
4.13798e-08
5.63098e-08
6.64614e-08
6.51675e-08
6.56584e-08
2.17491e-08
4.15026e-08
5.17063e-08
5.12897e-08
4.61954e-08
4.05678e-08
3.63171e-08
3.8008e-08
6.91096e-08
1.81716e-07
1.20289e-07
5.19638e-08
4.2643e-08
4.1328e-08
4.69977e-08
6.19765e-08
7.30453e-08
8.47674e-08
1.08638e-07
1.40945e-07
3.91782e-08
4.84907e-08
5.77259e-08
6.11928e-08
6.00875e-08
5.42423e-08
4.82355e-08
5.06871e-08
9.66153e-08
3.4145e-07
2.42492e-07
6.84654e-08
4.53332e-08
4.64871e-08
5.42649e-08
6.82165e-08
8.63485e-08
1.14914e-07
1.68647e-07
2.15942e-07
1.08634e-07
7.30369e-08
6.41936e-08
6.37821e-08
6.24958e-08
5.93483e-08
5.64175e-08
6.26772e-08
1.38071e-07
5.64934e-07
4.09303e-07
9.21686e-08
5.10855e-08
5.08985e-08
5.93364e-08
7.54485e-08
1.01796e-07
1.50037e-07
2.4841e-07
2.91648e-07
2.41817e-07
1.31772e-07
8.07587e-08
6.83026e-08
6.39108e-08
6.03225e-08
5.81495e-08
6.85759e-08
1.82809e-07
8.25486e-07
6.01942e-07
1.15717e-07
5.51001e-08
5.35309e-08
6.18162e-08
7.79342e-08
1.06656e-07
1.6483e-07
3.14278e-07
3.63583e-07
3.65775e-07
1.96198e-07
1.02729e-07
8.07805e-08
7.66569e-08
7.59286e-08
7.6513e-08
9.01965e-08
2.35911e-07
1.04096e-06
7.9518e-07
1.6034e-07
7.65687e-08
6.99132e-08
7.36757e-08
8.38193e-08
1.04515e-07
1.5074e-07
3.30967e-07
4.35983e-07
4.94209e-07
3.34949e-07
1.59664e-07
1.72999e-07
2.09282e-07
2.42937e-07
2.5444e-07
2.40769e-07
3.34828e-07
1.14682e-06
8.73117e-07
2.36681e-07
2.01654e-07
2.16224e-07
2.08767e-07
1.88656e-07
1.76516e-07
1.90938e-07
3.6177e-07
5.16761e-07
6.4312e-07
5.49385e-07
5.86475e-07
9.66919e-07
1.377e-06
1.72105e-06
1.85583e-06
1.70964e-06
1.87088e-06
3.01946e-06
2.32156e-06
1.43853e-06
1.40791e-06
1.51189e-06
1.39589e-06
1.12535e-06
8.32029e-07
6.00875e-07
5.43614e-07
6.24995e-07
8.51804e-07
1.15151e-06
1.45998e-06
1.83821e-06
2.27907e-06
2.76784e-06
3.30986e-06
3.93781e-06
4.73009e-06
5.66942e-06
4.85654e-06
3.87483e-06
3.18521e-06
2.67233e-06
2.24612e-06
1.86932e-06
1.53852e-06
1.26173e-06
1.01468e-06
7.6437e-07
9.3424e-09
1.42875e-08
1.76969e-08
2.09781e-08
2.43709e-08
2.67555e-08
2.85111e-08
3.10529e-08
3.48059e-08
5.15177e-08
5.11655e-08
4.64246e-08
4.27684e-08
4.22891e-08
4.3319e-08
4.18435e-08
3.7023e-08
3.08114e-08
2.35823e-08
1.74343e-08
1.98687e-08
1.81895e-08
2.27418e-08
2.88448e-08
3.62229e-08
4.1281e-08
4.4338e-08
5.60581e-08
1.02849e-07
5.05087e-07
3.79243e-07
1.1998e-07
8.0511e-08
6.02049e-08
5.01035e-08
4.47968e-08
4.34364e-08
4.93667e-08
4.88115e-08
4.26921e-08
2.67818e-08
2.9707e-08
3.67914e-08
4.12589e-08
4.45222e-08
4.52769e-08
4.76654e-08
6.91096e-08
2.43414e-07
1.87986e-06
1.46142e-06
2.73997e-07
7.98269e-08
4.96792e-08
4.15567e-08
4.37147e-08
5.78582e-08
6.81643e-08
8.26049e-08
1.11565e-07
2.73504e-08
3.717e-08
4.58313e-08
5.09137e-08
5.25049e-08
5.00861e-08
5.316e-08
9.66153e-08
5.00078e-07
3.70131e-06
2.80522e-06
4.45389e-07
8.81283e-08
4.49838e-08
4.08143e-08
4.96014e-08
6.54121e-08
8.75145e-08
1.30514e-07
1.88443e-07
8.45294e-08
5.47916e-08
4.83033e-08
5.11076e-08
5.34519e-08
5.3449e-08
6.01586e-08
1.38071e-07
9.08256e-07
5.92566e-06
4.26607e-06
6.04931e-07
9.21991e-08
4.55529e-08
4.43965e-08
5.57109e-08
7.72706e-08
1.15874e-07
1.97176e-07
2.63321e-07
2.15483e-07
1.0843e-07
6.08745e-08
5.17093e-08
5.18252e-08
5.31553e-08
6.36551e-08
1.82809e-07
1.42649e-06
8.21001e-06
5.64944e-06
7.86731e-07
9.93641e-08
4.92834e-08
4.91719e-08
6.08765e-08
8.54829e-08
1.36973e-07
2.7047e-07
3.34761e-07
3.37875e-07
1.64657e-07
8.00063e-08
6.11115e-08
6.10401e-08
6.55625e-08
8.0921e-08
2.35911e-07
1.8947e-06
9.89094e-06
6.57485e-06
9.91957e-07
1.31543e-07
6.84034e-08
6.50099e-08
7.2005e-08
9.03617e-08
1.33492e-07
2.97919e-07
4.05057e-07
4.63415e-07
2.81259e-07
1.28494e-07
1.35586e-07
1.66442e-07
1.93111e-07
2.0798e-07
3.34828e-07
2.06832e-06
9.82285e-06
6.65084e-06
1.01937e-06
2.18671e-07
1.84589e-07
1.81168e-07
1.68166e-07
1.59601e-07
1.69907e-07
3.30031e-07
4.84395e-07
6.10582e-07
4.88104e-07
4.76593e-07
8.25649e-07
1.16623e-06
1.41608e-06
1.51713e-06
1.87088e-06
3.59625e-06
7.6623e-06
5.62433e-06
2.3065e-06
1.36934e-06
1.26853e-06
1.19872e-06
9.95009e-07
7.44106e-07
5.18207e-07
4.82505e-07
5.92182e-07
8.39939e-07
1.13957e-06
1.4497e-06
1.85966e-06
2.35534e-06
2.94475e-06
3.68744e-06
4.73009e-06
6.26039e-06
7.95689e-06
6.82223e-06
4.89574e-06
3.66523e-06
2.89041e-06
2.34498e-06
1.90976e-06
1.54681e-06
1.25146e-06
1.00264e-06
7.5361e-07
9.08002e-09
1.44504e-08
1.9059e-08
2.40963e-08
3.00101e-08
3.53571e-08
4.06627e-08
4.63448e-08
5.15177e-08
3.42579e-08
4.22523e-08
8.61776e-08
8.39202e-08
8.03629e-08
7.85218e-08
7.37287e-08
6.32634e-08
4.63589e-08
2.33939e-08
1.67211e-08
1.83024e-08
1.88536e-08
2.53269e-08
3.27411e-08
4.02791e-08
4.50508e-08
5.19578e-08
8.15599e-08
5.05087e-07
6.31606e-07
5.78842e-07
3.44153e-07
8.33527e-08
7.44003e-08
6.94488e-08
6.52678e-08
5.7662e-08
4.35453e-08
3.56192e-08
3.22986e-08
2.46594e-08
2.57498e-08
3.3059e-08
4.09116e-08
4.74898e-08
5.0425e-08
5.94393e-08
1.81716e-07
1.87986e-06
1.30478e-06
1.18025e-06
1.13401e-06
1.03051e-07
5.95179e-08
5.18521e-08
4.6255e-08
4.48867e-08
5.513e-08
6.93537e-08
9.60118e-08
2.53576e-08
3.29227e-08
3.98783e-08
4.88007e-08
5.60875e-08
5.88216e-08
7.81783e-08
3.4145e-07
3.70131e-06
2.06121e-06
1.91242e-06
2.10193e-06
1.52832e-07
5.34574e-08
4.33668e-08
4.33219e-08
5.37355e-08
7.31089e-08
1.12656e-07
1.74139e-07
7.55089e-08
4.96095e-08
4.11253e-08
4.73123e-08
5.60426e-08
6.22662e-08
9.79426e-08
5.64934e-07
5.92566e-06
2.87905e-06
2.80313e-06
3.25602e-06
2.38195e-07
5.60143e-08
4.24546e-08
4.6539e-08
6.33471e-08
9.70568e-08
1.70812e-07
2.46615e-07
1.94757e-07
9.93012e-08
5.21749e-08
4.41513e-08
5.00882e-08
5.91166e-08
1.12195e-07
8.25486e-07
8.21001e-06
3.70567e-06
3.82248e-06
4.36867e-06
3.3846e-07
6.33269e-08
4.48156e-08
5.00683e-08
7.04996e-08
1.18122e-07
2.42359e-07
3.14418e-07
3.07601e-07
1.49953e-07
6.93056e-08
5.01036e-08
5.40073e-08
6.60947e-08
1.32522e-07
1.04096e-06
9.89094e-06
4.39443e-06
4.82165e-06
5.0036e-06
4.36272e-07
8.40276e-08
5.94626e-08
6.07559e-08
7.61762e-08
1.19143e-07
2.757e-07
3.79135e-07
4.22909e-07
2.43708e-07
1.07507e-07
1.03226e-07
1.24994e-07
1.46066e-07
2.07621e-07
1.14682e-06
9.82285e-06
4.78469e-06
5.48459e-06
4.68388e-06
4.69326e-07
1.63263e-07
1.46865e-07
1.38583e-07
1.33939e-07
1.4615e-07
3.04445e-07
4.50284e-07
5.56957e-07
4.05331e-07
3.66558e-07
6.46995e-07
8.91038e-07
1.08128e-06
1.48452e-06
3.01946e-06
7.6623e-06
5.14797e-06
5.71686e-06
4.18055e-06
1.76023e-06
1.06838e-06
9.46278e-07
8.10874e-07
6.1643e-07
4.2044e-07
4.12111e-07
5.43863e-07
7.91507e-07
1.07514e-06
1.36698e-06
1.79048e-06
2.32646e-06
3.02212e-06
4.03465e-06
5.66942e-06
7.95689e-06
6.65898e-06
7.13404e-06
5.82351e-06
4.08106e-06
3.00247e-06
2.33802e-06
1.85859e-06
1.4786e-06
1.17881e-06
9.43643e-07
7.08221e-07
8.79658e-09
1.46696e-08
1.98952e-08
2.50654e-08
2.97629e-08
3.40435e-08
3.73329e-08
4.24503e-08
5.11655e-08
4.22523e-08
5.99796e-08
1.32933e-07
1.29428e-07
1.29842e-07
1.29642e-07
1.24911e-07
1.12542e-07
9.05961e-08
5.90363e-08
1.92052e-08
1.52231e-08
2.10735e-08
2.89942e-08
3.60424e-08
3.9869e-08
3.90971e-08
3.8381e-08
5.73422e-08
3.79243e-07
5.78842e-07
4.70505e-07
1.63851e-07
9.35607e-08
9.68597e-08
9.85076e-08
9.76874e-08
9.11665e-08
7.57112e-08
4.34062e-08
3.07747e-08
1.94989e-08
2.6949e-08
3.50889e-08
4.26889e-08
4.64192e-08
4.44456e-08
4.44091e-08
1.20289e-07
1.46142e-06
1.18025e-06
1.09441e-06
4.14744e-07
7.82541e-08
7.19781e-08
7.06658e-08
6.65973e-08
5.87065e-08
5.30407e-08
6.47532e-08
9.45494e-08
2.18526e-08
3.25592e-08
4.19156e-08
4.88418e-08
5.29387e-08
5.19237e-08
5.82404e-08
2.42492e-07
2.80522e-06
1.91242e-06
2.07225e-06
6.98852e-07
8.04212e-08
5.8283e-08
5.41689e-08
5.09237e-08
5.34844e-08
6.98415e-08
1.08229e-07
1.72063e-07
8.89092e-08
5.31276e-08
4.27967e-08
4.86999e-08
5.61108e-08
6.01652e-08
8.0633e-08
4.09303e-07
4.26607e-06
2.80313e-06
3.43849e-06
1.06764e-06
9.91802e-08
5.38398e-08
4.82981e-08
4.85313e-08
6.00734e-08
9.11405e-08
1.6264e-07
2.43968e-07
2.03436e-07
1.03207e-07
5.37013e-08
4.45472e-08
5.21023e-08
6.20414e-08
1.01e-07
6.01942e-07
5.64944e-06
3.82248e-06
5.07698e-06
1.50187e-06
1.37463e-07
5.73796e-08
4.80731e-08
4.89302e-08
6.4861e-08
1.10241e-07
2.32667e-07
3.11258e-07
3.10993e-07
1.52221e-07
6.96058e-08
4.83356e-08
5.49072e-08
7.09029e-08
1.30877e-07
7.9518e-07
6.57485e-06
4.82165e-06
6.6522e-06
1.86694e-06
2.08404e-07
7.9821e-08
6.12817e-08
5.73096e-08
6.85041e-08
1.10927e-07
2.67376e-07
3.75898e-07
4.19928e-07
2.4341e-07
1.02568e-07
9.18193e-08
1.09397e-07
1.30064e-07
1.89154e-07
8.73117e-07
6.65084e-06
5.48459e-06
7.72114e-06
1.85693e-06
2.99307e-07
1.60946e-07
1.41038e-07
1.28023e-07
1.20911e-07
1.33266e-07
2.95543e-07
4.47281e-07
5.45905e-07
4.00024e-07
3.41343e-07
5.84775e-07
7.84431e-07
9.43777e-07
1.24681e-06
2.32156e-06
5.62433e-06
5.71686e-06
7.22347e-06
2.9175e-06
1.44457e-06
1.02644e-06
9.073e-07
7.71316e-07
5.88234e-07
3.96221e-07
4.05595e-07
5.43263e-07
7.67179e-07
1.02903e-06
1.29309e-06
1.65967e-06
2.11732e-06
2.70361e-06
3.53761e-06
4.85654e-06
6.82223e-06
7.13404e-06
7.81712e-06
5.4316e-06
3.87288e-06
2.91879e-06
2.29573e-06
1.83663e-06
1.47161e-06
1.18282e-06
9.50649e-07
7.17019e-07
8.97355e-09
1.69909e-08
2.32932e-08
2.69807e-08
3.3138e-08
3.56603e-08
3.65864e-08
3.82227e-08
4.64246e-08
8.61776e-08
1.32933e-07
1.49545e-07
1.6151e-07
1.70448e-07
1.75776e-07
1.75685e-07
1.68104e-07
1.50802e-07
1.21784e-07
7.89579e-08
1.29745e-08
2.75386e-08
3.77648e-08
4.63249e-08
4.87954e-08
4.27547e-08
3.59044e-08
4.08071e-08
1.1998e-07
3.44153e-07
1.63851e-07
1.04459e-07
1.15051e-07
1.22386e-07
1.28882e-07
1.33028e-07
1.31541e-07
1.19327e-07
9.18122e-08
4.5932e-08
1.62849e-08
3.4617e-08
4.46746e-08
5.28384e-08
5.47955e-08
4.87485e-08
4.06211e-08
5.19638e-08
2.73997e-07
1.13401e-06
4.14744e-07
8.9426e-08
8.42672e-08
8.83202e-08
9.07971e-08
9.08458e-08
8.64249e-08
7.76385e-08
7.56595e-08
1.00516e-07
2.21995e-08
3.79227e-08
4.89439e-08
5.54536e-08
5.73931e-08
5.2892e-08
4.69177e-08
6.84654e-08
4.45389e-07
2.10193e-06
6.98852e-07
9.39609e-08
6.77785e-08
6.93951e-08
6.93599e-08
6.72746e-08
6.57811e-08
7.52159e-08
1.12079e-07
1.7801e-07
1.08144e-07
6.27152e-08
5.29451e-08
5.42375e-08
5.71126e-08
5.54813e-08
5.39545e-08
9.21686e-08
6.04931e-07
3.25602e-06
1.06764e-06
1.17425e-07
6.00484e-08
5.92716e-08
5.85501e-08
5.78477e-08
6.42409e-08
9.29018e-08
1.66213e-07
2.50576e-07
2.17597e-07
1.11719e-07
6.18621e-08
5.11868e-08
5.32798e-08
5.49494e-08
5.87695e-08
1.15717e-07
7.86731e-07
4.36867e-06
1.50187e-06
1.64431e-07
6.08958e-08
5.5869e-08
5.45489e-08
5.48692e-08
6.60753e-08
1.09891e-07
2.36884e-07
3.19039e-07
3.22978e-07
1.59911e-07
7.57717e-08
5.44049e-08
5.80335e-08
6.65526e-08
7.93977e-08
1.6034e-07
9.91957e-07
5.0036e-06
1.86694e-06
2.49756e-07
8.6886e-08
7.24251e-08
6.6933e-08
6.25088e-08
6.85055e-08
1.08242e-07
2.69063e-07
3.85692e-07
4.30479e-07
2.60466e-07
1.08561e-07
1.03529e-07
1.26626e-07
1.53147e-07
1.72009e-07
2.36681e-07
1.01937e-06
4.68388e-06
1.85693e-06
3.47248e-07
2.09996e-07
1.96869e-07
1.76671e-07
1.49499e-07
1.30303e-07
1.35365e-07
3.00095e-07
4.59927e-07
5.56635e-07
4.29795e-07
3.87008e-07
6.61311e-07
9.07559e-07
1.1044e-06
1.22554e-06
1.43853e-06
2.3065e-06
4.18055e-06
2.9175e-06
1.56715e-06
1.28263e-06
1.20854e-06
1.08399e-06
8.89227e-07
6.64963e-07
4.42437e-07
4.35619e-07
5.62203e-07
7.70037e-07
1.02802e-06
1.28949e-06
1.62493e-06
2.02876e-06
2.50839e-06
3.09932e-06
3.87483e-06
4.89574e-06
5.82351e-06
5.4316e-06
4.24489e-06
3.36988e-06
2.72716e-06
2.23133e-06
1.82704e-06
1.48797e-06
1.21013e-06
9.73834e-07
7.36617e-07
1.25949e-08
2.2323e-08
4.09099e-08
6.33045e-08
6.59241e-08
4.28436e-08
3.75977e-08
3.56958e-08
4.27684e-08
8.39202e-08
1.29428e-07
1.6151e-07
1.83733e-07
1.9932e-07
2.09448e-07
2.1391e-07
2.11648e-07
2.01044e-07
1.81062e-07
1.54076e-07
2.1764e-08
4.28549e-08
5.68917e-08
6.71663e-08
6.68211e-08
5.14106e-08
3.83358e-08
4.01359e-08
8.0511e-08
8.33527e-08
9.35607e-08
1.15051e-07
1.29485e-07
1.39139e-07
1.47574e-07
1.56098e-07
1.62345e-07
1.59547e-07
1.36212e-07
7.86615e-08
2.54166e-08
4.97914e-08
6.26442e-08
6.92567e-08
6.9375e-08
5.97893e-08
4.59075e-08
4.2643e-08
7.98269e-08
1.03051e-07
7.82541e-08
8.42672e-08
9.32605e-08
9.84065e-08
1.02499e-07
1.06046e-07
1.06932e-07
1.03158e-07
1.00526e-07
1.13921e-07
3.47436e-08
5.11058e-08