/*--------------------------------*- C++ -*----------------------------------*\
  =========                 |
  \\      /  F ield         | OpenFOAM: The Open Source CFD Toolbox
   \\    /   O peration     | Website:  https://openfoam.org
    \\  /    A nd           | Version:  8
     \\/     M anipulation  |
\*---------------------------------------------------------------------------*/
FoamFile
{
    version     2.0;
    format      ascii;
    class       volScalarField;
    location    "1600";
    object      k;
}
// * * * * * * * * * * * * * * * * * * * * * * * * * * * * * * * * * * * * * //

dimensions      [0 2 -2 0 0 0 0];

internalField   nonuniform List<scalar> 
4000
(
3.16032e-05
2.99243e-05
2.74662e-05
2.49859e-05
2.10515e-05
6.92219e-06
3.39359e-06
3.32008e-06
3.23534e-06
3.17535e-06
3.10824e-06
3.14663e-06
3.93752e-06
8.44891e-06
1.85857e-05
2.18622e-05
2.37328e-05
2.50958e-05
2.71279e-05
2.92978e-05
3.39592e-05
3.18049e-05
2.7468e-05
2.2583e-05
1.90839e-05
1.01401e-05
4.84381e-06
5.32757e-06
5.35152e-06
5.06481e-06
4.48104e-06
4.01847e-06
5.66462e-06
8.79502e-06
1.55877e-05
1.72546e-05
1.88925e-05
2.2306e-05
2.7628e-05
3.15728e-05
3.532e-05
3.35914e-05
2.88011e-05
2.08832e-05
1.73654e-05
1.20965e-05
8.434e-06
5.67678e-06
6.52977e-06
6.17813e-06
5.28237e-06
4.67554e-06
6.28639e-06
8.24973e-06
1.29779e-05
1.361e-05
1.36171e-05
2.08398e-05
2.87384e-05
3.28571e-05
3.60367e-05
3.50377e-05
3.11197e-05
2.52422e-05
1.77397e-05
1.43366e-05
1.12659e-05
8.40015e-06
6.6138e-06
6.29245e-06
5.69843e-06
5.75806e-06
7.76737e-06
1.08974e-05
1.2204e-05
1.44402e-05
1.8819e-05
2.45066e-05
3.02985e-05
3.35062e-05
3.65654e-05
3.64916e-05
3.42605e-05
3.06892e-05
2.67678e-05
2.36444e-05
2.05111e-05
1.66117e-05
1.40641e-05
1.30481e-05
1.45466e-05
1.657e-05
1.83978e-05
2.01899e-05
2.18219e-05
2.37522e-05
2.63189e-05
2.95542e-05
3.26894e-05
3.41312e-05
3.71136e-05
3.81342e-05
3.76003e-05
3.61794e-05
3.43241e-05
3.24246e-05
3.04127e-05
2.83181e-05
2.62297e-05
2.45242e-05
2.52476e-05
2.64059e-05
2.76437e-05
2.88547e-05
2.99646e-05
3.10959e-05
3.23779e-05
3.37764e-05
3.48515e-05
3.47117e-05
3.77651e-05
3.99089e-05
4.08985e-05
4.11962e-05
4.09991e-05
4.02471e-05
3.89791e-05
3.73203e-05
3.54037e-05
3.32609e-05
3.3505e-05
3.43609e-05
3.53159e-05
3.61689e-05
3.68073e-05
3.72106e-05
3.73802e-05
3.73121e-05
3.67918e-05
3.52734e-05
3.86234e-05
4.19924e-05
4.43734e-05
4.60706e-05
4.7161e-05
4.74829e-05
4.6942e-05
4.56161e-05
4.37071e-05
4.11271e-05
4.09328e-05
4.16166e-05
4.23925e-05
4.2957e-05
4.31036e-05
4.27362e-05
4.18869e-05
4.06255e-05
3.87877e-05
3.5962e-05
3.98969e-05
4.47747e-05
4.86647e-05
5.16372e-05
5.38028e-05
5.50512e-05
5.52396e-05
5.43784e-05
5.25352e-05
4.94176e-05
4.87597e-05
4.93977e-05
5.00446e-05
5.02743e-05
4.98242e-05
4.863e-05
4.68105e-05
4.44661e-05
4.13438e-05
3.70487e-05
4.18893e-05
4.83623e-05
5.38116e-05
5.79646e-05
6.12172e-05
6.35951e-05
6.50769e-05
6.55958e-05
6.49908e-05
6.24718e-05
6.11791e-05
6.133e-05
6.11411e-05
6.03181e-05
5.8775e-05
5.65114e-05
5.35515e-05
4.98623e-05
4.49965e-05
3.88628e-05
2.99243e-05
3.08646e-05
2.91048e-05
2.59401e-05
2.16197e-05
9.49903e-06
4.96966e-06
4.37899e-06
4.29616e-06
4.32779e-06
4.36927e-06
4.8178e-06
5.76913e-06
1.32487e-05
2.04776e-05
2.36851e-05
2.57982e-05
2.75913e-05
2.97192e-05
2.98887e-05
3.18049e-05
3.73003e-05
3.53925e-05
2.85525e-05
2.26417e-05
1.45706e-05
1.0179e-05
8.34781e-06
8.20873e-06
7.89542e-06
7.65187e-06
8.30745e-06
1.02837e-05
1.4143e-05
2.02528e-05
2.3471e-05
2.46408e-05
2.78649e-05
3.50264e-05
3.25147e-05
3.35914e-05
4.15681e-05
4.25211e-05
3.44351e-05
2.4075e-05
1.69504e-05
1.33107e-05
1.20989e-05
1.13997e-05
1.04115e-05
9.66881e-06
1.03417e-05
1.24305e-05
1.50407e-05
1.72229e-05
1.82741e-05
1.9052e-05
2.8321e-05
4.03587e-05
3.41534e-05
3.50377e-05
4.43083e-05
4.654e-05
3.92125e-05
2.60258e-05
1.89674e-05
1.46986e-05
1.22792e-05
1.17595e-05
1.20763e-05
1.14787e-05
1.11686e-05
1.29694e-05
1.55698e-05
1.66593e-05
1.74812e-05
1.99338e-05
3.1984e-05
4.51025e-05
3.50976e-05
3.64916e-05
4.63672e-05
4.91463e-05
4.3585e-05
3.16471e-05
2.42666e-05
1.89575e-05
1.47725e-05
1.28791e-05
1.28348e-05
1.29339e-05
1.3582e-05
1.57718e-05
1.86953e-05
2.07109e-05
2.25994e-05
2.75443e-05
3.84199e-05
4.65869e-05
3.58315e-05
3.81342e-05
4.74927e-05
5.02632e-05
4.77909e-05
3.94266e-05
3.14489e-05
2.56585e-05
2.11343e-05
1.85366e-05
1.78113e-05
1.81268e-05
1.89063e-05
2.06856e-05
2.33884e-05
2.60925e-05
2.91096e-05
3.51593e-05
4.27056e-05
4.56767e-05
3.65109e-05
3.99089e-05
4.79433e-05
5.00726e-05
5.01222e-05
4.84351e-05
4.22955e-05
3.48995e-05
2.94865e-05
2.5616e-05
2.40126e-05
2.42444e-05
2.51481e-05
2.68413e-05
2.93227e-05
3.28019e-05
3.70994e-05
4.07116e-05
4.3465e-05
4.3529e-05
3.73725e-05
4.19924e-05
4.87974e-05
5.06775e-05
5.28903e-05
5.5246e-05
5.52729e-05
5.27341e-05
4.77584e-05
4.18591e-05
3.7928e-05
3.76297e-05
3.91153e-05
4.12738e-05
4.34704e-05
4.48521e-05
4.50003e-05
4.41925e-05
4.31802e-05
4.27753e-05
3.87214e-05
4.47747e-05
5.22806e-05
5.64849e-05
6.03256e-05
6.34934e-05
6.51063e-05
6.40806e-05
6.03433e-05
5.44095e-05
4.7122e-05
4.60438e-05
4.83442e-05
5.11233e-05
5.31329e-05
5.32597e-05
5.1488e-05
4.90476e-05
4.715e-05
4.59245e-05
4.08296e-05
4.83623e-05
5.59752e-05
6.26187e-05
6.8083e-05
7.27558e-05
7.64922e-05
7.9054e-05
8.02013e-05
7.96534e-05
7.66266e-05
7.44118e-05
7.43615e-05
7.37489e-05
7.21512e-05
6.94765e-05
6.58524e-05
6.15588e-05
5.67634e-05
5.0968e-05
4.40404e-05
2.74662e-05
2.91048e-05
2.75951e-05
2.48653e-05
2.06022e-05
8.66207e-06
6.1575e-06
4.95044e-06
4.95648e-06
5.20449e-06
5.35417e-06
5.95148e-06
8.60054e-06
1.66224e-05
2.16015e-05
2.45701e-05
2.67192e-05
2.86177e-05
3.04405e-05
2.9624e-05
2.7468e-05
3.53925e-05
3.4129e-05
2.78244e-05
2.1983e-05
1.5362e-05
1.22786e-05
9.93219e-06
9.79366e-06
9.69303e-06
9.42128e-06
1.01233e-05
1.23628e-05
1.7092e-05
2.22782e-05
2.54249e-05
2.72425e-05
3.10576e-05
3.73801e-05
3.21903e-05
2.88011e-05
4.25211e-05
4.58331e-05
3.66682e-05
2.5403e-05
1.86156e-05
1.58904e-05
1.49865e-05
1.37758e-05
1.25521e-05
1.16003e-05
1.24221e-05
1.46391e-05
1.7081e-05
1.96939e-05
2.18574e-05
2.48882e-05
3.3628e-05
4.45242e-05
3.40779e-05
3.11197e-05
4.654e-05
4.96845e-05
4.22074e-05
2.92308e-05
2.14435e-05
1.73538e-05
1.54512e-05
1.49894e-05
1.47172e-05
1.41354e-05
1.42498e-05
1.57074e-05
1.77007e-05
1.85171e-05
1.95737e-05
2.30057e-05
3.71566e-05
5.09042e-05
3.53399e-05
3.42605e-05
4.91463e-05
5.10594e-05
4.49116e-05
3.25407e-05
2.43406e-05
1.91436e-05
1.56396e-05
1.41417e-05
1.40731e-05
1.3925e-05
1.45303e-05
1.62132e-05
1.83034e-05
1.9355e-05
2.03109e-05
2.47807e-05
3.97044e-05
5.358e-05
3.64091e-05
3.76003e-05
5.02632e-05
5.10096e-05
4.60429e-05
3.5663e-05
2.75049e-05
2.17094e-05
1.72991e-05
1.47761e-05
1.41946e-05
1.42402e-05
1.49037e-05
1.67053e-05
1.90487e-05
2.07263e-05
2.23278e-05
2.79057e-05
4.11884e-05
5.14506e-05
3.75983e-05
4.08985e-05
5.00726e-05
4.94852e-05
4.49272e-05
3.83769e-05
3.17428e-05
2.57624e-05
2.08223e-05
1.74377e-05
1.61759e-05
1.61605e-05
1.68334e-05
1.85119e-05
2.06655e-05
2.25828e-05
2.48378e-05
2.98264e-05
3.95124e-05
4.7244e-05
3.9219e-05
4.43734e-05
5.06775e-05
5.06817e-05
4.6818e-05
4.4114e-05
4.07514e-05
3.61078e-05
3.07106e-05
2.57573e-05
2.26501e-05
2.1842e-05
2.26802e-05
2.46409e-05
2.69632e-05
2.86105e-05
2.97752e-05
3.23805e-05
3.91077e-05
4.51713e-05
4.14032e-05
4.86647e-05
5.64849e-05
6.53973e-05
7.48242e-05
8.02814e-05
8.26907e-05
8.0029e-05
7.18687e-05
6.04282e-05
4.94082e-05
4.68356e-05
5.14779e-05
5.80674e-05
6.29977e-05
6.30384e-05
5.90499e-05
5.5728e-05
5.23898e-05
5.00342e-05
4.45819e-05
5.38116e-05
6.26187e-05
7.03506e-05
7.70375e-05
8.31004e-05
8.82739e-05
9.20512e-05
9.39501e-05
9.35176e-05
8.99302e-05
8.66495e-05
8.64868e-05
8.54685e-05
8.30528e-05
7.91518e-05
7.40893e-05
6.85787e-05
6.29699e-05
5.65307e-05
4.88669e-05
2.49859e-05
2.59401e-05
2.48653e-05
2.23617e-05
1.76975e-05
7.50073e-06
7.04767e-06
5.35463e-06
5.55379e-06
6.08638e-06
6.24776e-06
6.5674e-06
1.15329e-05
1.76455e-05
2.14868e-05
2.42324e-05
2.63459e-05
2.81334e-05
2.95899e-05
2.84352e-05
2.2583e-05
2.85525e-05
2.78244e-05
2.38508e-05
1.90479e-05
1.51067e-05
1.26056e-05
1.09139e-05
1.15391e-05
1.14853e-05
1.07284e-05
1.13657e-05
1.37086e-05
1.82539e-05
2.24911e-05
2.55267e-05
2.80612e-05
3.19582e-05
3.67439e-05
3.05957e-05
2.08832e-05
3.44351e-05
3.66682e-05
2.95408e-05
2.20666e-05
1.80284e-05
1.65873e-05
1.55736e-05
1.52861e-05
1.44726e-05
1.31662e-05
1.38132e-05
1.55972e-05
1.81838e-05
2.12349e-05
2.45342e-05
2.92603e-05
3.71452e-05
4.52784e-05
3.28728e-05
2.52422e-05
3.92125e-05
4.22074e-05
3.5593e-05
2.64246e-05
2.10271e-05
1.83056e-05
1.71104e-05
1.69308e-05
1.72271e-05
1.57289e-05
1.56239e-05
1.69994e-05
1.85956e-05
2.02549e-05
2.30532e-05
2.88658e-05
4.12094e-05
5.27032e-05
3.48313e-05
3.06892e-05
4.3585e-05
4.49116e-05
3.93694e-05
3.01556e-05
2.37794e-05
1.97139e-05
1.70776e-05
1.61392e-05
1.68436e-05
1.64295e-05
1.61348e-05
1.75216e-05
1.91312e-05
1.99515e-05
2.1638e-05
2.70734e-05
4.22053e-05
5.6874e-05
3.67024e-05
3.61794e-05
4.77909e-05
4.60429e-05
4.0691e-05
3.25733e-05
2.6044e-05
2.117e-05
1.74102e-05
1.52696e-05
1.51213e-05
1.51461e-05
1.53655e-05
1.70198e-05
1.90476e-05
1.99925e-05
2.09936e-05
2.61828e-05
4.09679e-05
5.65381e-05
3.86968e-05
4.11962e-05
5.01222e-05
4.49272e-05
3.99483e-05
3.4185e-05
2.88972e-05
2.41377e-05
1.98313e-05
1.66426e-05
1.53961e-05
1.52706e-05
1.58275e-05
1.76375e-05
1.96264e-05
2.07002e-05
2.14501e-05
2.58978e-05
3.7891e-05
5.17138e-05
4.10799e-05
4.60706e-05
5.28903e-05
4.6818e-05
4.43884e-05
4.33674e-05
4.17019e-05
3.84446e-05
3.33978e-05
2.7606e-05
2.29806e-05
2.13973e-05
2.30224e-05
2.66148e-05
2.96366e-05
2.99033e-05
2.86406e-05
3.02657e-05
3.80203e-05
4.92812e-05
4.405e-05
5.16372e-05
6.03256e-05
7.48242e-05
8.68385e-05
9.78924e-05
0.000106697
0.000108395
0.000101884
8.86621e-05
7.29865e-05
6.77777e-05
7.49312e-05
8.45386e-05
8.90085e-05
8.41965e-05
7.34613e-05
6.5297e-05
6.22861e-05
5.58182e-05
4.8112e-05
5.79646e-05
6.8083e-05
7.70375e-05
8.51617e-05
9.31409e-05
0.000100332
0.000105993
0.000109543
0.000110398
0.000107644
0.000102322
0.000100888
9.86014e-05
9.47027e-05
8.90528e-05
8.21172e-05
7.51105e-05
6.86732e-05
6.14433e-05
5.282e-05
2.10515e-05
2.16197e-05
2.06022e-05
1.76975e-05
1.3807e-05
7.59764e-06
7.56871e-06
6.18449e-06
6.13634e-06
7.04677e-06
7.00968e-06
7.52963e-06
1.18553e-05
1.55953e-05
1.88472e-05
2.22412e-05
2.44488e-05
2.60708e-05
2.71604e-05
2.62244e-05
1.90839e-05
2.26417e-05
2.1983e-05
1.90479e-05
1.5693e-05
1.42158e-05
1.24239e-05
1.17174e-05
1.34784e-05
1.33266e-05
1.15432e-05
1.18036e-05
1.37146e-05
1.70348e-05
2.0424e-05
2.37091e-05
2.65878e-05
2.98537e-05
3.33711e-05
2.75857e-05
1.73654e-05
2.4075e-05
2.5403e-05
2.20666e-05
1.86423e-05
1.70893e-05
1.60326e-05
1.50703e-05
1.63992e-05
1.61211e-05
1.40495e-05
1.42188e-05
1.57134e-05
1.792e-05
2.06646e-05
2.44441e-05
3.00369e-05
3.75911e-05
4.37999e-05
3.05069e-05
1.77397e-05
2.60258e-05
2.92308e-05
2.64246e-05
2.22313e-05
1.96598e-05
1.83758e-05
1.76854e-05
1.80109e-05
1.91587e-05
1.67423e-05
1.61002e-05
1.71888e-05
1.87672e-05
2.0935e-05
2.49e-05
3.20818e-05
4.31235e-05
5.23356e-05
3.35613e-05
2.67678e-05
3.16471e-05
3.25407e-05
3.01556e-05
2.56811e-05
2.21338e-05
1.95903e-05
1.78745e-05
1.76025e-05
1.94703e-05
1.85421e-05
1.72173e-05
1.80941e-05
1.94381e-05
2.09158e-05
2.40517e-05
3.09468e-05
4.40777e-05
5.79533e-05
3.64847e-05
3.43241e-05
3.94266e-05
3.5663e-05
3.25733e-05
2.8256e-05
2.42223e-05
2.07654e-05
1.79772e-05
1.66098e-05
1.76684e-05
1.80515e-05
1.70425e-05
1.80843e-05
1.96931e-05
2.07792e-05
2.26313e-05
2.81186e-05
4.17125e-05
5.97162e-05
3.93633e-05
4.09991e-05
4.84351e-05
3.83769e-05
3.4185e-05
3.0783e-05
2.73859e-05
2.39283e-05
2.0549e-05
1.80174e-05
1.76354e-05
1.82744e-05
1.81026e-05
1.91724e-05
2.07547e-05
2.15958e-05
2.21763e-05
2.62626e-05
3.80051e-05
5.5593e-05
4.25361e-05
4.7161e-05
5.5246e-05
4.4114e-05
4.33674e-05
4.417e-05
4.41515e-05
4.21956e-05
3.77766e-05
3.16236e-05
2.62182e-05
2.44013e-05
2.65627e-05
3.12513e-05
3.40487e-05
3.36434e-05
3.12345e-05
3.20508e-05
3.94594e-05
5.33053e-05
4.62113e-05
5.38028e-05
6.34934e-05
8.02814e-05
9.78924e-05
0.000117013
0.000131407
0.000136404
0.000129838
0.000111975
8.97076e-05
8.19072e-05
9.29641e-05
0.000107468
0.000112495
0.000104904
9.01495e-05
7.78161e-05
7.16543e-05
6.14101e-05
5.10679e-05
6.12172e-05
7.27558e-05
8.31004e-05
9.31409e-05
0.000103387
0.000112804
0.000120706
0.000126421
0.000129226
0.000128163
0.000120344
0.000116962
0.000112823
0.000107043
9.95406e-05
9.08583e-05
8.21642e-05
7.43585e-05
6.59872e-05
5.61405e-05
6.92219e-06
9.49903e-06
8.66207e-06
7.50073e-06
7.59764e-06
8.0107e-06
7.68123e-06
6.57589e-06
6.52566e-06
7.85831e-06
7.66622e-06
7.90655e-06
8.90683e-06
9.59878e-06
1.15562e-05
1.53846e-05
2.02331e-05
2.24903e-05
2.33763e-05
2.28448e-05
1.01401e-05
1.45706e-05
1.5362e-05
1.51067e-05
1.42158e-05
1.29876e-05
1.18788e-05
1.16684e-05
1.48992e-05
1.47183e-05
1.19292e-05
1.15069e-05
1.22626e-05
1.36271e-05
1.55709e-05
1.87481e-05
2.21519e-05
2.42792e-05
2.53665e-05
2.24889e-05
1.20965e-05
1.69504e-05
1.86156e-05
1.80284e-05
1.70893e-05
1.62103e-05
1.50254e-05
1.44232e-05
1.68698e-05
1.70646e-05
1.41263e-05
1.37333e-05
1.49556e-05
1.63869e-05
1.79631e-05
2.06463e-05
2.48611e-05
3.06027e-05
3.59088e-05
2.65948e-05
1.43366e-05
1.89674e-05
2.14435e-05
2.10271e-05
1.96598e-05
1.87576e-05
1.80495e-05
1.72585e-05
1.79822e-05
1.98162e-05
1.68449e-05
1.56877e-05
1.66282e-05
1.80914e-05
1.98835e-05
2.29554e-05
2.87504e-05
3.79292e-05
4.71019e-05
3.1445e-05
2.36444e-05
2.42666e-05
2.43406e-05
2.37794e-05
2.21338e-05
2.04661e-05
1.90733e-05
1.8082e-05
1.82541e-05
2.08748e-05
1.96578e-05
1.73501e-05
1.77053e-05
1.9093e-05
2.09548e-05
2.41876e-05
3.07288e-05
4.21095e-05
5.53628e-05
3.56585e-05
3.24246e-05
3.14489e-05
2.75049e-05
2.6044e-05
2.42223e-05
2.20778e-05
1.99482e-05
1.82169e-05
1.77314e-05
1.99016e-05
2.05499e-05
1.80819e-05
1.81128e-05
1.94766e-05
2.11817e-05
2.38707e-05
2.96382e-05
4.14138e-05
5.98418e-05
3.94006e-05
4.02471e-05
4.22955e-05
3.17428e-05
2.88972e-05
2.73859e-05
2.5588e-05
2.34356e-05
2.11883e-05
1.96799e-05
2.05397e-05
2.19626e-05
2.05402e-05
2.03182e-05
2.13068e-05
2.24174e-05
2.38302e-05
2.77379e-05
3.82613e-05
5.75531e-05
4.32644e-05
4.74829e-05
5.52729e-05
4.07514e-05
4.17019e-05
4.41515e-05
4.57049e-05
4.50054e-05
4.11025e-05
3.45954e-05
2.88969e-05
2.73804e-05
3.00673e-05
3.51395e-05
3.77196e-05
3.70723e-05
3.48691e-05
3.51711e-05
4.13557e-05
5.57027e-05
4.75233e-05
5.50512e-05
6.51063e-05
8.26907e-05
0.000106697
0.000131407
0.000150134
0.000157723
0.00014932
0.000124719
9.72433e-05
8.88255e-05
0.000103849
0.000124246
0.000132027
0.000123389
0.000105138
8.82932e-05
7.80915e-05
6.5059e-05
5.30545e-05
6.35951e-05
7.64922e-05
8.82739e-05
0.000100332
0.000112804
0.00012466
0.000135258
0.000143902
0.000149964
0.000152569
0.000141627
0.000134717
0.000127559
0.00011928
0.000109664
9.91661e-05
8.8781e-05
7.94189e-05
6.97869e-05
5.86968e-05
3.39359e-06
4.96966e-06
6.1575e-06
7.04767e-06
7.56871e-06
7.68123e-06
7.23386e-06
6.61362e-06
6.80343e-06
8.62102e-06
8.14757e-06
8.03794e-06
8.17719e-06
7.8224e-06
7.70795e-06
8.11749e-06
1.0475e-05
1.54223e-05
1.73178e-05
1.6231e-05
4.84381e-06
1.0179e-05
1.22786e-05
1.26056e-05
1.24239e-05
1.18788e-05
1.12268e-05
1.12339e-05
1.56422e-05
1.61288e-05
1.2236e-05
1.11119e-05
1.12688e-05
1.14998e-05
1.20577e-05
1.39456e-05
1.56217e-05
1.74266e-05
1.80388e-05
1.64069e-05
8.434e-06
1.33107e-05
1.58904e-05
1.65873e-05
1.60326e-05
1.50254e-05
1.41147e-05
1.3914e-05
1.71929e-05
1.80735e-05
1.4149e-05
1.28969e-05
1.35078e-05
1.46821e-05
1.61162e-05
1.73053e-05
1.90527e-05
2.1965e-05
2.52331e-05
2.2448e-05
1.12659e-05
1.46986e-05
1.73538e-05
1.83056e-05
1.83758e-05
1.80495e-05
1.7204e-05
1.66392e-05
1.83576e-05
2.13184e-05
1.72713e-05
1.49656e-05
1.5357e-05
1.66769e-05
1.81896e-05
2.0293e-05
2.35677e-05
2.90351e-05
3.57407e-05
2.87399e-05
2.05111e-05
1.89575e-05
1.91436e-05
1.97139e-05
1.95903e-05
1.90733e-05
1.85095e-05
1.8174e-05
1.94017e-05
2.40053e-05
2.15217e-05
1.72492e-05
1.68494e-05
1.79137e-05
1.97607e-05
2.26401e-05
2.7525e-05
3.60455e-05
4.82446e-05
3.41533e-05
3.04127e-05
2.56585e-05
2.17094e-05
2.117e-05
2.07654e-05
1.99482e-05
1.90018e-05
1.8469e-05
1.96938e-05
2.52167e-05
2.45031e-05
1.89008e-05
1.76369e-05
1.8528e-05
2.04132e-05
2.3433e-05
2.87242e-05
3.86494e-05
5.65257e-05
3.87156e-05
3.89791e-05
3.48995e-05
2.57624e-05
2.41377e-05
2.39283e-05
2.34356e-05
2.25739e-05
2.1732e-05
2.2387e-05
2.75183e-05
2.82829e-05
2.28289e-05
2.09356e-05
2.12119e-05
2.23709e-05
2.43899e-05
2.83803e-05
3.70702e-05
5.7026e-05
4.31039e-05
4.6942e-05
5.27341e-05
3.61078e-05
3.84446e-05
4.21956e-05
4.50054e-05
4.52513e-05
4.17075e-05
3.59876e-05
3.4281e-05
3.2929e-05
3.21426e-05
3.65441e-05
3.92423e-05
3.88593e-05
3.72459e-05
3.7471e-05
4.19523e-05
5.58141e-05
4.78057e-05
5.52396e-05
6.40806e-05
8.0029e-05
0.000108395
0.000136404
0.000157723
0.000165742
0.000152428
0.000124303
0.000111546
0.000100957
0.00010664
0.000128829
0.000140261
0.000133112
0.000114642
9.49685e-05
8.0209e-05
6.58154e-05
5.38581e-05
6.50769e-05
7.9054e-05
9.20512e-05
0.000105993
0.000120706
0.000135258
0.000149176
0.000162118
0.000174212
0.00018497
0.000169422
0.000155106
0.000142583
0.000130651
0.000118479
0.000106087
9.40853e-05
8.32339e-05
7.24647e-05
6.03576e-05
3.32008e-06
4.37899e-06
4.95044e-06
5.35463e-06
6.18449e-06
6.57589e-06
6.61362e-06
6.57257e-06
7.19969e-06
9.40159e-06
8.87189e-06
8.27235e-06
7.89719e-06
7.14175e-06
7.14876e-06
7.26984e-06
7.0659e-06
6.36496e-06
6.60581e-06
5.733e-06
5.32757e-06
8.34781e-06
9.93219e-06
1.09139e-05
1.17174e-05
1.16684e-05
1.12339e-05
1.20398e-05
1.76473e-05
1.9131e-05
1.4503e-05
1.2621e-05
1.28364e-05
1.27092e-05
1.20411e-05
1.26753e-05
1.45494e-05
1.4593e-05
1.32896e-05
1.18649e-05
5.67678e-06
1.20989e-05
1.49865e-05
1.55736e-05
1.50703e-05
1.44232e-05
1.3914e-05
1.44839e-05
1.95625e-05
2.74684e-05
2.0744e-05
1.4671e-05
1.3884e-05
1.37335e-05
1.43616e-05
1.61587e-05
1.69354e-05
1.749e-05
1.91364e-05
1.97158e-05
8.40015e-06
1.22792e-05
1.54512e-05
1.71104e-05
1.76854e-05
1.72585e-05
1.66392e-05
1.72372e-05
2.27097e-05
3.9499e-05
3.11418e-05
1.72189e-05
1.46942e-05
1.4776e-05
1.56741e-05
1.73934e-05
1.94445e-05
2.2426e-05
2.70878e-05
2.62173e-05
1.66117e-05
1.47725e-05
1.56396e-05
1.70776e-05
1.78745e-05
1.8082e-05
1.8174e-05
1.93733e-05
2.70075e-05
5.47108e-05
4.41359e-05
2.08795e-05
1.63443e-05
1.60816e-05
1.71582e-05
1.94595e-05
2.31328e-05
2.92321e-05
3.9053e-05
3.20504e-05
2.83181e-05
2.11343e-05
1.72991e-05
1.74102e-05
1.79772e-05
1.82169e-05
1.8469e-05
2.02439e-05
3.10139e-05
7.08426e-05
5.79168e-05
2.40988e-05
1.77221e-05
1.73169e-05
1.8537e-05
2.11419e-05
2.57071e-05
3.4065e-05
5.08524e-05
3.71404e-05
3.73203e-05
2.94865e-05
2.08223e-05
1.98313e-05
2.0549e-05
2.11883e-05
2.1732e-05
2.37291e-05
3.63421e-05
8.39097e-05
7.17418e-05
3.00814e-05
2.19281e-05
2.08788e-05
2.15477e-05
2.34434e-05
2.71663e-05
3.45334e-05
5.40608e-05
4.19284e-05
4.56161e-05
4.77584e-05
3.07106e-05
3.33978e-05
3.77766e-05
4.11025e-05
4.17075e-05
3.97367e-05
4.5808e-05
9.18024e-05
7.89391e-05
3.73561e-05
3.5483e-05
3.78003e-05
3.80308e-05
3.7089e-05
3.74212e-05
4.04871e-05
5.37671e-05
4.69637e-05
5.43784e-05
6.03433e-05
7.18687e-05
0.000101884
0.000129838
0.00014932
0.000152428
0.000136361
0.000135879
0.000181232
0.000154216
0.000113653
0.000119603
0.000132509
0.000129575
0.000113836
9.43607e-05
7.68617e-05
6.30835e-05
5.33081e-05
6.55958e-05
8.02013e-05
9.39501e-05
0.000109543
0.000126421
0.000143902
0.000162118
0.000182013
0.000205661
0.000232045
0.000209279
0.000180001
0.000157939
0.000140486
0.000125113
0.000110689
9.72021e-05
8.51549e-05
7.36389e-05
6.09674e-05
3.23534e-06
4.29616e-06
4.95648e-06
5.55379e-06
6.13634e-06
6.52566e-06
6.80343e-06
7.19969e-06
7.76489e-06
1.00874e-05
1.00502e-05
9.42015e-06
8.93083e-06
8.87807e-06
9.02389e-06
8.81736e-06
8.12459e-06
7.18829e-06
6.00986e-06
4.90409e-06
5.35152e-06
8.20873e-06
9.79366e-06
1.15391e-05
1.34784e-05
1.48992e-05
1.56422e-05
1.76473e-05
2.24706e-05
5.11656e-05
4.31148e-05
2.3337e-05
1.97769e-05
1.62379e-05
1.39368e-05
1.26741e-05
1.25543e-05
1.3471e-05
1.20941e-05
8.91881e-06
6.52977e-06
1.13997e-05
1.37758e-05
1.52861e-05
1.63992e-05
1.68698e-05
1.71929e-05
1.95625e-05
3.3287e-05
0.000118558
9.94433e-05
3.36921e-05
1.93015e-05
1.56448e-05
1.36848e-05
1.35336e-05
1.51014e-05
1.54528e-05
1.58338e-05
1.68601e-05
6.6138e-06
1.17595e-05
1.49894e-05
1.69308e-05
1.80109e-05
1.79822e-05
1.83576e-05
2.27097e-05
5.10435e-05
0.000194699
0.000159365
4.47198e-05
1.95096e-05
1.50406e-05
1.3729e-05
1.44202e-05
1.60628e-05
1.81043e-05
2.17894e-05
2.39349e-05
1.40641e-05
1.28791e-05
1.41417e-05
1.61392e-05
1.76025e-05
1.82541e-05
1.94017e-05
2.70075e-05
7.65806e-05
0.000278752
0.000219488
5.57529e-05
2.01795e-05
1.53386e-05
1.45796e-05
1.58201e-05
1.8623e-05
2.33253e-05
3.15029e-05
2.99344e-05
2.62297e-05
1.85366e-05
1.47761e-05
1.52696e-05
1.66098e-05
1.77314e-05
1.96938e-05
3.10139e-05
0.000106021
0.000359694
0.000274645
6.80868e-05
2.16758e-05
1.65264e-05
1.61317e-05
1.77283e-05
2.14979e-05
2.88945e-05
4.44388e-05
3.51445e-05
3.54037e-05
2.5616e-05
1.74377e-05
1.66426e-05
1.80174e-05
1.96799e-05
2.2387e-05
3.63421e-05
0.000131581
0.000418718
0.000313713
8.20796e-05
2.66304e-05
2.05271e-05
1.99032e-05
2.10317e-05
2.42099e-05
3.10591e-05
5.04491e-05
3.99169e-05
4.37071e-05
4.18591e-05
2.57573e-05
2.7606e-05
3.16236e-05
3.45954e-05
3.59876e-05
4.5808e-05
0.00014511
0.000427537
0.000327315
8.72977e-05
3.58336e-05
3.38893e-05
3.43898e-05
3.40614e-05
3.45932e-05
3.71367e-05
5.0585e-05
4.49794e-05
5.25352e-05
5.44095e-05
6.04282e-05
8.86621e-05
0.000111975
0.000124719
0.000124303
0.000135879
0.000214758
0.00036441
0.000297742
0.000155774
0.000110801
0.000112228
0.000113492
0.000102901
8.6415e-05
6.88117e-05
5.76426e-05
5.14224e-05
6.49908e-05
7.96534e-05
9.35176e-05
0.000110398
0.000129226
0.000149964
0.000174212
0.000205661
0.000247904
0.000290847
0.000262511
0.00021037
0.000173428
0.00014802
0.000128748
0.000112271
9.75441e-05
8.46858e-05
7.30493e-05
6.03888e-05
3.17535e-06
4.32779e-06
5.20449e-06
6.08638e-06
7.04677e-06
7.85831e-06
8.62102e-06
9.40159e-06
1.00874e-05
1.06882e-05
1.32137e-05
1.42613e-05
1.40156e-05
1.36165e-05
1.34017e-05
1.28441e-05
1.15937e-05
9.43115e-06
5.96653e-06
4.76535e-06
5.06481e-06
7.89542e-06
9.69303e-06
1.14853e-05
1.33266e-05
1.47183e-05
1.61288e-05
1.9131e-05
5.11656e-05
4.76702e-05
4.96928e-05
4.18914e-05
1.84847e-05
1.7098e-05
1.58704e-05
1.49134e-05
1.35948e-05
1.148e-05
1.00447e-05
7.40115e-06
6.17813e-06
1.04115e-05
1.25521e-05
1.44726e-05
1.61211e-05
1.70646e-05
1.80735e-05
2.74684e-05
0.000118558
8.26118e-05
8.31259e-05
8.55812e-05
2.05541e-05
1.65487e-05
1.48259e-05
1.33454e-05
1.25891e-05
1.33308e-05
1.39859e-05
1.524e-05
6.29245e-06
1.20763e-05
1.47172e-05
1.72271e-05
1.91587e-05
1.98162e-05
2.13184e-05
3.9499e-05
0.000194699
0.000118583
0.000119057
0.000129447
2.4257e-05
1.62846e-05
1.41049e-05
1.31923e-05
1.39312e-05
1.56764e-05
1.92318e-05
2.27055e-05
1.30481e-05
1.28348e-05
1.40731e-05
1.68436e-05
1.94703e-05
2.08748e-05
2.40053e-05
5.47108e-05
0.000278752
0.000155729
0.000159275
0.000177561
3.04847e-05
1.69925e-05
1.44608e-05
1.41209e-05
1.59494e-05
1.99292e-05
2.74764e-05
2.86547e-05
2.45242e-05
1.78113e-05
1.41946e-05
1.51213e-05
1.76684e-05
1.99016e-05
2.52167e-05
7.08426e-05
0.000359694
0.000192786
0.000203037
0.000222632
3.78577e-05
1.84087e-05
1.55426e-05
1.55963e-05
1.84193e-05
2.52163e-05
3.9938e-05
3.37058e-05
3.32609e-05
2.40126e-05
1.61759e-05
1.53961e-05
1.76354e-05
2.05397e-05
2.75183e-05
8.39097e-05
0.000418718
0.000224991
0.000245541
0.000251065
4.61091e-05
2.21745e-05
1.90002e-05
1.87605e-05
2.11713e-05
2.80179e-05
4.78933e-05
3.81949e-05
4.11271e-05
3.7928e-05
2.26501e-05
2.29806e-05
2.62182e-05
2.88969e-05
3.4281e-05
9.18024e-05
0.000427537
0.000246903
0.000276548
0.000247726
5.11113e-05
3.09696e-05
3.00524e-05
2.98278e-05
3.04503e-05
3.32161e-05
4.788e-05
4.28417e-05
4.94176e-05
4.7122e-05
4.94082e-05
7.29865e-05
8.97076e-05
9.72433e-05
0.000111546
0.000181232
0.00036441
0.000266918
0.0002916
0.000236787
0.000124742
9.38445e-05
9.35041e-05
8.788e-05
7.50743e-05
5.91621e-05
5.12717e-05
4.85855e-05
6.24718e-05
7.66266e-05
8.99302e-05
0.000107644
0.000128163
0.000152569
0.00018497
0.000232045
0.000290847
0.000258104
0.000270468
0.000236145
0.00018629
0.000151808
0.000128486
0.000110253
9.46543e-05
8.13759e-05
7.01558e-05
5.79401e-05
3.10824e-06
4.36927e-06
5.35417e-06
6.24776e-06
7.00968e-06
7.66622e-06
8.14757e-06
8.87189e-06
1.00502e-05
1.32137e-05
1.87725e-05
1.9037e-05
1.8694e-05
1.87262e-05
1.86993e-05
1.82351e-05
1.70058e-05
1.4713e-05
1.10565e-05
5.22901e-06
4.48104e-06
7.65187e-06
9.42128e-06
1.07284e-05
1.15432e-05
1.19292e-05
1.2236e-05
1.4503e-05
4.31148e-05
4.96928e-05
5.02329e-05
2.76704e-05
1.93193e-05
1.93866e-05
1.92922e-05
1.88656e-05
1.76434e-05
1.52408e-05
1.05464e-05
7.14481e-06
5.28237e-06
9.66881e-06
1.16003e-05
1.31662e-05
1.40495e-05
1.41263e-05
1.4149e-05
2.0744e-05
9.94433e-05
8.31259e-05
8.58544e-05
4.72924e-05
1.8756e-05
1.80263e-05
1.73871e-05
1.61854e-05
1.431e-05
1.27071e-05
1.32454e-05
1.50795e-05
5.69843e-06
1.14787e-05
1.41354e-05
1.57289e-05
1.67423e-05
1.68449e-05
1.72713e-05
3.11418e-05
0.000159365
0.000119057
0.000130819
6.37167e-05
1.92816e-05
1.70942e-05
1.58159e-05
1.43867e-05
1.375e-05
1.50196e-05
1.85227e-05
2.25269e-05
1.45466e-05
1.29339e-05
1.3925e-05
1.64295e-05
1.85421e-05
1.96578e-05
2.15217e-05
4.41359e-05
0.000219488
0.000159275
0.000185416
8.3406e-05
2.13536e-05
1.72689e-05
1.5656e-05
1.4602e-05
1.53401e-05
1.88307e-05
2.61766e-05
2.84528e-05
2.52476e-05
1.81268e-05
1.42402e-05
1.51461e-05
1.80515e-05
2.05499e-05
2.45031e-05
5.79168e-05
0.000274645
0.000203037
0.000245892
0.000106619
2.55813e-05
1.88028e-05
1.66491e-05
1.56507e-05
1.73599e-05
2.36937e-05
3.83186e-05
3.34828e-05
3.3505e-05
2.42444e-05
1.61605e-05
1.52706e-05
1.82744e-05
2.19626e-05
2.82829e-05
7.17418e-05
0.000313713
0.000245541
0.000303133
0.000128069
3.36262e-05
2.31342e-05
1.99548e-05
1.83787e-05
1.96669e-05
2.63207e-05
4.67375e-05
3.79804e-05
4.09328e-05
3.76297e-05
2.1842e-05
2.13973e-05
2.44013e-05
2.73804e-05
3.2929e-05
7.89391e-05
0.000327315
0.000276548
0.000346247
0.000133336
4.22551e-05
3.17629e-05
2.97729e-05
2.84218e-05
2.82806e-05
3.09356e-05
4.63745e-05
4.26543e-05
4.87597e-05
4.60438e-05
4.68356e-05
6.77777e-05
8.19072e-05
8.88255e-05
0.000100957
0.000154216
0.000297742
0.0002916
0.000339553
0.000181069
0.000111221
9.31472e-05
9.11284e-05
8.4728e-05
7.22726e-05
5.6347e-05
4.96384e-05
4.85544e-05
6.11791e-05
7.44118e-05
8.66495e-05
0.000102322
0.000120344
0.000141627
0.000169422
0.000209279
0.000262511
0.000270468
0.000287429
0.000225414
0.000179896
0.00014898
0.000126939
0.00010939
9.43634e-05
8.15683e-05
7.0509e-05
5.84239e-05
3.14663e-06
4.8178e-06
5.95148e-06
6.5674e-06
7.52963e-06
7.90655e-06
8.03794e-06
8.27235e-06
9.42015e-06
1.42613e-05
1.9037e-05
2.05769e-05
2.16489e-05
2.24321e-05
2.28914e-05
2.288e-05
2.22157e-05
2.0665e-05
1.79257e-05
1.34414e-05
4.01847e-06
8.30745e-06
1.01233e-05
1.13657e-05
1.18036e-05
1.15069e-05
1.11119e-05
1.2621e-05
2.3337e-05
4.18914e-05
2.76704e-05
2.07989e-05
2.20457e-05
2.29365e-05
2.36408e-05
2.38167e-05
2.30079e-05
2.0681e-05
1.64376e-05
9.34177e-06
4.67554e-06
1.03417e-05
1.24221e-05
1.38132e-05
1.42188e-05
1.37333e-05
1.28969e-05
1.4671e-05
3.36921e-05
8.55812e-05
4.72924e-05
2.02273e-05
2.01342e-05
2.06816e-05
2.07216e-05
2.00541e-05
1.84514e-05
1.61471e-05
1.47157e-05
1.57193e-05
5.75806e-06
1.11686e-05
1.42498e-05
1.56239e-05
1.61002e-05
1.56877e-05
1.49656e-05
1.72189e-05
4.47198e-05
0.000129447
6.37167e-05
2.0769e-05
1.88916e-05
1.91061e-05
1.85926e-05
1.73116e-05
1.58289e-05
1.58722e-05
1.90322e-05
2.30482e-05
1.657e-05
1.3582e-05
1.45303e-05
1.61348e-05
1.72173e-05
1.73501e-05
1.72492e-05
2.08795e-05
5.57529e-05
0.000177561
8.3406e-05
2.29379e-05
1.84756e-05
1.84177e-05
1.76954e-05
1.65099e-05
1.62195e-05
1.91898e-05
2.66706e-05
2.89683e-05
2.64059e-05
1.89063e-05
1.49037e-05
1.53655e-05
1.70425e-05
1.80819e-05
1.89008e-05
2.40988e-05
6.80868e-05
0.000222632
0.000106619
2.75715e-05
1.93839e-05
1.88921e-05
1.8093e-05
1.71356e-05
1.78548e-05
2.37812e-05
3.90262e-05
3.40413e-05
3.43609e-05
2.51481e-05
1.68334e-05
1.58275e-05
1.81026e-05
2.05402e-05
2.28289e-05
3.00814e-05
8.20796e-05
0.000251065
0.000128069
3.69092e-05
2.42363e-05
2.26469e-05
2.1358e-05
1.98468e-05
2.00213e-05
2.59792e-05
4.666e-05
3.86396e-05
4.16166e-05
3.91153e-05
2.26802e-05
2.30224e-05
2.65627e-05
3.00673e-05
3.21426e-05
3.73561e-05
8.72977e-05
0.000247726
0.000133336
4.71557e-05
3.77763e-05
3.70446e-05
3.4909e-05
3.17269e-05
2.97535e-05
3.11697e-05
4.62706e-05
4.34555e-05
4.93977e-05
4.83442e-05
5.14779e-05
7.49312e-05
9.29641e-05
0.000103849
0.00010664
0.000113653
0.000155774
0.000236787
0.000181069
0.000119253
0.000109403
0.00011055
0.000106492
9.51151e-05
7.91694e-05
6.06726e-05
5.17942e-05
4.96784e-05
6.133e-05
7.43615e-05
8.64868e-05
0.000100888
0.000116962
0.000134717
0.000155106
0.000180001
0.00021037
0.000236145
0.000225414
0.000191243
0.000163964
0.000142388
0.000124554
0.000109009
9.50615e-05
8.28209e-05
7.16531e-05
5.94858e-05
3.93752e-06
5.76913e-06
8.60054e-06
1.15329e-05
1.18553e-05
8.90683e-06
8.17719e-06
7.89719e-06
8.93083e-06
1.40156e-05
1.8694e-05
2.16489e-05
2.35795e-05
2.48876e-05
2.57198e-05
2.60822e-05
2.58982e-05
2.50278e-05
2.3345e-05
2.09712e-05
5.66462e-06
1.02837e-05
1.23628e-05
1.37086e-05
1.37146e-05
1.22626e-05
1.12688e-05
1.28364e-05
1.97769e-05
1.84847e-05
1.93193e-05
2.20457e-05
2.42787e-05
2.598e-05
2.72949e-05
2.81443e-05
2.8125e-05
2.64671e-05
2.20686e-05
1.33818e-05
6.28639e-06
1.24305e-05
1.46391e-05
1.55972e-05
1.57134e-05
1.49556e-05
1.35078e-05
1.3884e-05
1.93015e-05
2.05541e-05
1.8756e-05
2.01342e-05
2.18784e-05
2.30259e-05
2.3612e-05
2.34809e-05
2.23365e-05
2.01616e-05
1.80489e-05
1.7098e-05
7.76737e-06
1.29694e-05
1.57074e-05
1.69994e-05
1.71888e-05
1.66282e-05