/*--------------------------------*- C++ -*----------------------------------*\
  =========                 |
  \\      /  F ield         | OpenFOAM: The Open Source CFD Toolbox
   \\    /   O peration     | Website:  https://openfoam.org
    \\  /    A nd           | Version:  8
     \\/     M anipulation  |
\*---------------------------------------------------------------------------*/
FoamFile
{
    version     2.0;
    format      ascii;
    class       surfaceScalarField;
    location    "1600";
    object      phi;
}
// * * * * * * * * * * * * * * * * * * * * * * * * * * * * * * * * * * * * * //

dimensions      [1 0 -1 0 0 0 0];

internalField   nonuniform List<scalar> 
11200
(
0.00327499
-0.00653387
0.00327499
0.00494
-0.00453448
0.00286947
0.00508041
-0.0023996
0.00225918
0.0035048
-0.00015124
0.00172685
0.000340175
0.00185843
0.00130619
-0.00087327
0.000529788
0.000683663
-0.00068003
-0.000174613
-1.86326e-05
-0.000376048
-0.000197207
-0.000106774
3.8685e-05
-0.000201636
-0.000213097
0.000482957
-0.000213973
-0.000230297
0.000825803
-0.000203122
-0.000139723
0.0010559
-0.000170572
-5.95289e-05
0.0011889
-0.000273799
0.000140793
-0.000154333
0.000331233
0.00101196
-0.00312248
0.00195248
0.00101566
-0.00525923
0.00117857
0.000958174
-0.00628947
-7.10437e-05
0.00110128
-0.00613725
-0.00150906
0.00135683
-0.00429706
-0.00347429
0.00163409
-0.00612038
0.00182332
0.00154899
-0.00963186
0.00154899
0.00245011
-0.00694919
0.00151358
0.0027223
-0.00383381
0.00116202
0.0018697
1.55041e-05
0.000685851
0.000822892
0.00216765
0.000737582
-0.000189109
0.000980918
0.000560867
-0.000554151
0.000172817
1.76096e-05
-0.000348238
8.28397e-05
-0.000485964
-9.14743e-05
0.000127892
-0.000586295
9.69017e-05
0.000105157
-0.00050751
0.000195065
6.4044e-05
-0.000365333
-2.30313e-05
6.12288e-05
-1.37094e-05
8.09532e-05
-0.000420847
4.3068e-05
8.96871e-05
-0.000156279
0.000478775
-0.000645553
0.00195984
0.000727861
-0.00164205
0.00159602
0.000579037
-0.00270104
0.000347491
0.000640456
-0.00283716
-0.00237873
0.00100578
-0.00192982
-0.00560342
0.00122179
-0.00930549
0.00125528
0.000642344
-0.0109165
0.000642344
0.00081808
-0.00806871
0.000943782
0.000816652
-0.00473646
0.000904069
0.00115993
-0.00107077
0.000742984
0.00129537
0.00138044
0.000651774
0.000873738
0.000821815
0.00058073
0.000111277
0.00047981
0.000455465
-0.0002438
0.000423034
1.48815e-05
-1.52496e-05
0.00037516
-0.000475823
0.000229571
0.000330579
-0.000470246
0.000289947
0.000265279
-0.000261615
9.17602e-05
0.000239336
2.00769e-05
-0.000215545
-0.000102804
-1.07346e-05
-0.000180497
-0.000331666
0.000140355
0.000184615
0.00101922
0.000575494
0.000342989
0.000780099
0.00065754
0.000295722
-0.000609908
0.00100466
-0.000140079
-0.0032336
0.00129066
-0.000310136
-0.00667513
0.00124176
-0.0106378
0.00102216
0.000165096
-0.0112467
0.000165096
-0.000138493
-0.0085085
0.00074337
-0.00036114
-0.0054909
0.000977082
0.000288332
-0.00283068
0.00111044
0.00125399
-0.00066713
0.0010819
0.00135256
-0.000295954
0.00101919
0.000898876
1.18838e-05
0.000921604
0.000390026
0.000279286
0.000652589
0.000311672
0.000299146
0.000154363
0.000503804
0.000267075
-0.000128632
0.000596766
0.000114706
5.76068e-05
0.000476014
-2.67625e-05
0.000386846
0.000183777
-0.000249976
0.000439403
6.71298e-05
-0.000624171
0.000409152
0.000738677
-0.000482788
0.00083046
0.0014207
-0.000991147
0.00108921
0.001628
-0.00226405
0.00144684
0.00122236
-0.00434429
0.00151634
0.000535928
-0.00731504
0.00132634
-0.01101
0.00090812
-0.000119504
-0.0110077
-0.000119504
-0.000710564
-0.00857685
0.000659407
-0.00109631
-0.00611322
0.00100806
-0.00108931
-0.00413179
0.0012941
-0.000543595
-0.00269176
0.00147891
-0.000260594
-0.00202048
0.00144152
-0.000106033
-0.00150153
0.00135885
7.91036e-05
-0.00111261
0.00120676
0.000311916
-0.000875651
0.00094198
0.000587615
-0.000786095
0.000777467
0.00086109
-0.00104679
0.000888017
0.00109258
-0.00132227
0.001064
0.00131637
-0.00159803
0.00112427
0.00149804
-0.00190867
0.00110282
0.00195919
-0.00217261
0.00122866
0.00229671
-0.00270981
0.00138113
0.00225398
-0.00372293
0.00150161
0.00179315
-0.00533268
0.00144921
0.000921906
-0.00772409
0.00128029
-0.0108762
0.000788162
-0.00030028
-0.0104072
-0.00030028
-0.00107198
-0.00837682
0.00057166
-0.001592
-0.00648973
0.000896536
-0.00173533
-0.00509925
0.00111078
-0.00153431
-0.00414628
0.0012535
-0.00126685
-0.00357368
0.00128574
-0.000888958
-0.00314373
0.00126429
-0.000414166
-0.00279717
0.00120975
9.52244e-05
-0.00249275
0.0011077
0.000582207
-0.0023449
0.00107182
0.00106145
-0.00260758
0.00108154
0.00151036
-0.00287825
0.00110707
0.0019306
-0.00312693
0.00110864
0.0022985
-0.00337558
0.00109901
0.00263979
-0.00364484
0.00113094
0.00280582
-0.00407761
0.00120177
0.00264574
-0.00481749
0.00125464
0.00208961
-0.00598949
0.00121293
0.0010973
-0.00782527
0.00109348
-0.0103811
0.00060212
-0.000489674
-0.00942785
-0.000489674
-0.00141276
-0.00782427
0.000370531
-0.00202859
-0.00648245
0.000608542
-0.00223107
-0.00558856
0.000691784
-0.00207893
-0.00500457
0.000706146
-0.00172982
-0.00464519
0.000722387
-0.00123969
-0.00436798
0.000734116
-0.000652773
-0.0041054
0.000721318
3.24802e-06
-0.00384188
0.00069311
0.000636936
-0.00369509
0.000716497
0.00121512
-0.00389304
0.00070727
0.00176998
-0.00411426
0.000681143
0.0022925
-0.00430706
0.000657603
0.00274443
-0.00447901
0.000651484
0.00308496
-0.00465558
0.00067021
0.00321251
-0.0049206
0.000715427
0.00299652
-0.00538983
0.000788319
0.00234317
-0.00616167
0.000825532
0.00122354
-0.00748534
0.000779696
-0.0094608
0.000303264
-0.000800362
-0.00782713
-0.000800362
-0.00188268
-0.00660785
-0.000134103
-0.00257413
-0.00574168
-4.93328e-05
-0.00279649
-0.00525934
-0.000106862
-0.00261791
-0.00497872
-0.000204438
-0.00215788
-0.00481871
-0.00028651
-0.00151701
-0.00470444
-0.000304427
-0.000787104
-0.00458252
-0.000252788
-3.04388e-05
-0.0044135
-0.000185054
0.000654343
-0.00427837
-0.000101513
0.00130341
-0.00441927
-0.000122852
0.00196404
-0.00457598
-0.000198915
0.00260166
-0.0046806
-0.000264089
0.00316197
-0.00474125
-0.00029807
0.00357105
-0.0047907
-0.000273958
0.00371893
-0.00488484
-0.000183642
0.00348112
-0.00510001
-5.20177e-05
0.00273031
-0.00553415
0.000123288
0.00144741
-0.00639965
0.000197199
-0.00784007
-0.000173321
-0.00139666
-0.00503382
-0.00139666
-0.00266424
-0.00433182
-0.00100845
-0.00339135
-0.00396847
-0.0010461
-0.00358831
-0.00386122
-0.00120116
-0.00335605
-0.00385116
-0.00135983
-0.00279868
-0.00388323
-0.00149286
-0.00201604
-0.00391997
-0.00156711
-0.00109827
-0.00392533
-0.00157497
-0.000138932
-0.00386344
-0.0015094
0.000670002
-0.00376328
-0.00132402
0.00147759
-0.0038482
-0.00137866
0.00231516
-0.00392432
-0.00148923
0.00310319
-0.00393541
-0.00153323
0.0037753
-0.00389348
-0.00151988
0.00425987
-0.00382627
-0.00144901
0.00444975
-0.00376615
-0.00130858
0.00421308
-0.00375119
-0.00111217
0.00341627
-0.00384209
-0.000895252
0.00195687
-0.00420753
-0.000732721
-0.00502146
-0.000861743
-0.00251691
-0.00251691
-0.00407058
-0.00277816
-0.00476918
-0.00326988
-0.00489428
-0.00373613
-0.00457613
-0.00416931
-0.00391981
-0.00453955
-0.0029937
-0.00484609
-0.00184254
-0.00507649
-0.000525786
-0.0051802
0.000744851
-0.00503392
0.00190879
-0.00501214
0.003033
-0.00504854
0.00401772
-0.00492013
0.00481474
-0.0046905
0.00537911
-0.00439064
0.00563599
-0.00402303
0.00546347
-0.00357867
0.0046971
-0.00307573
0.00299474
-0.00250517
-0.00202672
0.00286947
-0.00453448
0.00494
0.00448533
-0.00323173
0.00448533
0.00466184
-0.00152364
0.0036063
0.00330472
0.000433495
0.00265047
0.000654082
0.0020941
0.00186272
-0.000494897
0.00097774
0.000854906
-0.00047681
-0.00017404
0.000137314
-0.000272647
-0.000219267
-9.16694e-05
1.36239e-06
-0.000212112
-0.000274994
0.000280864
-0.000215994
-0.000293803
0.000496844
-0.000233493
-0.000122212
0.000798237
-0.00034278
-1.8143e-05
0.000528361
-0.000154023
0.000564692
-0.00136384
0.00149369
0.00141043
-0.00378146
0.00196943
0.00146385
-0.00559046
0.00120631
0.00156085
-0.00642278
3.52161e-06
0.00193007
-0.00615587
-0.00132299
0.00241291
-0.00429664
-0.00314493
0.00291979
-0.00567676
0.00320344
0.00151358
-0.00694919
0.00245011
0.00254279
-0.00529015
0.00254279
0.00285149
-0.00275164
0.00208132
0.00216262
0.000395951
0.00141226
0.00140827
0.00234084
0.00124519
0.000586828
0.00136171
0.000998334
2.10128e-05
0.000219185
0.000190196
-0.000182995
4.97612e-05
-0.000550988
-0.000255383
7.42665e-05
-0.00080029
-0.000344383
1.88729e-05
-0.000653379
-0.000456337
-0.000158126
-0.000328747
-0.000557492
-0.000385085
0.000129752
-0.000781173
-0.000127396
0.000240123
-0.000899457
0.00127723
0.000813501
-0.00153018
0.00237519
0.000952819
-0.00246879
0.00187713
0.000846812
-0.00337896
0.000532458
0.00102169
-0.0033725
-0.001896
0.00157231
-0.00229547
-0.00495389
0.00195372
-0.00862921
0.00191225
0.000943782
-0.00806871
0.00081808
0.00149372
-0.00639003
0.00149372
0.00173261
-0.00360259
0.00151612
0.00184281
-0.000211903
0.00124063
0.00180612
0.00191295
0.00111634
0.00135687
0.00139951
0.000992172
0.000665469
0.000728866
0.000637184
0.000181731
0.00052114
2.72375e-05
-5.14533e-05
0.000491244
-0.000659621
-0.000244143
0.000408071
-0.000666758
-0.000503566
0.000208495
-0.000368816
-0.000777147
-2.79741e-05
-6.34536e-05
-0.000966281
-3.16917e-05
8.2694e-05
-0.000753957
0.000766066
0.000439191
-0.000502326
0.00193177
0.000767271
-0.000611313
0.00179129
0.00085236
-0.000853638
0.000541805
0.00123762
-0.00117485
-0.00200304
0.00171891
-0.000997058
-0.0057025
0.00181257
-0.00989811
0.001294
0.00074337
-0.0085085
-0.000138493
0.000955826
-0.00681495
0.000955826
0.000932229
-0.00401739
0.00141548
0.0012508
-0.000858767
0.00143872
0.00174723
0.00114458
0.00135384
0.00166527
0.00119728
0.00130337
0.00115442
0.001054
0.00110732
0.000617489
0.00103248
0.000678168
0.000345782
0.000950563
-3.32538e-05
0.000226258
0.000824259
-0.000425302
1.65716e-06
0.000703779
-0.000213081
-0.000382678
0.000600398
0.000142805
-0.000720259
0.000483148
0.000262142
-0.000567551
0.000592682
0.000429828
5.29991e-05
0.00127902
0.000862648
0.000549862
0.00119709
0.00118654
0.000627419
0.000127781
0.0017833
0.000161273
-0.00216259
0.00214202
-0.000246083
-0.00587555
0.00190674
-0.0101815
0.000945443
0.000659407
-0.00857685
-0.000710564
0.000637704
-0.00677155
0.000637704
0.000357844
-0.00407045
0.00134097
0.000449629
-0.00130742
0.00165096
0.000875519
0.000443558
0.00175404
0.000911545
0.000909039
0.00169373
0.000674349
0.00113526
0.00151478
0.000432619
0.00129833
0.00118263
0.000371791
0.00130391
0.000649457
0.000484147
0.0012171
0.000272263
0.000549871
0.00112003
0.000406039
0.000459354
0.00104238
0.00071253
0.000308966
0.000930038
0.000827763
0.000360138
0.000770473
0.000873857
0.000828864
0.000877088
0.00116186
0.00124424
0.000608536
0.00155431
0.00123061
-0.000430837
0.00207385
0.000725162
-0.00248197
0.00227403
0.000114385
-0.00587957
0.00189508
-0.00989767
0.000618685
0.00057166
-0.00837682
-0.00107198
0.000382641
-0.00639351
0.000382641
-4.5797e-05
-0.00390634
0.00116086
-0.000139288
-0.00164252
0.00153937
1.25074e-05
-0.00020476
0.00175002
7.55686e-05
0.000429987
0.00170172
6.20122e-05
0.000842529
0.00157057
9.69963e-05
0.00111803
0.00135506
0.000246876
0.0012414
0.00102032
0.000527899
0.00123667
0.000771226
0.000782051
0.00112077
0.000826639
0.000934435
0.00099896
0.000998104
0.00104067
0.000847497
0.00108495
0.00116059
0.000630905
0.00111865
0.00141803
0.000450254
0.00130033
0.0016168
7.25683e-07
0.0016108
0.00142043
-0.000922802
0.00194297
0.000896845
-0.0027742
0.00202874
0.000243233
-0.00577998
0.0016475
-0.00927151
0.000219193
0.000370531
-0.00782427
-0.00141276
5.36822e-05
-0.00575982
5.36822e-05
-0.000433726
-0.00361878
0.000808378
-0.000607662
-0.00194897
0.00117216
-0.000531662
-0.000857914
0.00128329
-0.000383937
-0.000282823
0.00128747
-0.000210478
0.000152907
0.00125027
-7.83575e-06
0.00048546
0.00115124
0.000238443
0.000715753
0.000972474
0.000548981
0.000817794
0.000824825
0.000849329
0.000695266
0.000832422
0.00110222
0.000508123
0.000919077
0.0013314
0.00030282
0.000973102
0.00154519
7.20413e-05
0.000996545
0.00177326
-0.000200584
0.00109298
0.00183927
-0.000617005
0.00126713
0.00159784
-0.00139154
0.00149849
0.00106354
-0.00294504
0.00153066
0.000377026
-0.00542094
0.00110717
-0.00832668
-0.000264546
-0.000134103
-0.00660785
-0.00188268
-0.000613572
-0.00480089
-0.000613572
-0.00111126
-0.00324925
7.88247e-05
-0.00130484
-0.00215289
0.000290641
-0.00122904
-0.00146197
0.000323808
-0.000978115
-0.00109263
0.000272367
-0.000592933
-0.000824792
0.000288083
-0.000178231
-0.000572799
0.000390762
0.000211326
-0.000352805
0.000493941
0.000579719
-0.000220491
0.000568371
0.000937748
-0.000317595
0.000531973
0.00131142
-0.000504626
0.000440156
0.00169203
-0.000683624
0.000341738
0.00205895
-0.000857265
0.000264314
0.00232684
-0.00102465
0.000282218
0.00237864
-0.0012739
0.000421441
0.00211147
-0.00180926
0.000632869
0.00152783
-0.00288434
0.000646226
0.000686261
-0.00464091
0.000258739
-0.00689555
-0.000918189
-0.00100845
-0.00433182
-0.00266424
-0.00187194
-0.00307391
-0.00187194
-0.0023747
-0.00226693
-0.00152567
-0.00243761
-0.00183451
-0.00145664
-0.00220994
-0.00160293
-0.00144654
-0.00176892
-0.00147743
-0.00154909
-0.0011798
-0.00137957
-0.00160146
-0.00051343
-0.00126495
-0.00154919
0.000132525
-0.00109203
-0.00141613
0.000655683
-0.000879597
-0.00118808
0.00121571
-0.00102442
-0.00123187
0.0017965
-0.00121796
-0.00135669
0.00234361
-0.00133102
-0.00143295
0.00282678
-0.00140119
-0.00145913
0.00320163
-0.00145367
-0.00139485
0.00336255
-0.00153397
-0.00120944
0.00321656
-0.00172011
-0.00105533
0.00259309
-0.00213989
-0.00101623
0.0014373
-0.00300218
-0.00121567
-0.00444638
-0.00187362
-0.00277816
-0.00407058
-0.00431512
-0.00431512
-0.00497665
-0.00487527
-0.00507521
-0.00547208
-0.00476289
-0.00608456
-0.00414496
-0.0066349
-0.00326837
-0.00710225
-0.00214668
-0.00746314
-0.00077618
-0.00764273
0.00078169
-0.00747139
0.00217281
-0.00742768
0.0033367
-0.0074304
0.00428237
-0.00719682
0.005008
-0.00681732
0.00550663
-0.00634295
0.00573197
-0.00578235
0.00556478
-0.0051316
0.00481228
-0.00446312
0.00310352
-0.00379859
-0.00336958
0.00225918
-0.0023996
0.00508041
0.0036063
-0.00152364
0.00466184
0.0037336
-0.000254604
0.0037336
0.00251306
0.00128861
0.00258239
0.000238344
0.00240792
0.00172952
-0.000491566
0.000795414
0.000789405
-0.000307164
-0.000221531
0.000174432
-0.000229121
-0.000222127
5.24142e-05
-9.03898e-05
-0.000238221
-0.000175501
3.39021e-05
-0.000266305
-0.000151789
0.000210812
-0.000343779
4.46575e-05
0.000487774
-0.000441886
0.000146788
-0.000216957
0.000420784
0.000848618
-0.00211125
0.00199284
0.00131186
-0.00398811
0.00195092
0.00138978
-0.0054432
0.00127555
0.00174038
-0.00610547
0.000199865
0.00239247
-0.00576452
-0.00106215
0.00313411
-0.00397548
-0.00267647
0.00380721
-0.00483323
0.00406119
0.00116202
-0.00383381
0.0027223
0.00208132
-0.00275164
0.00285149
0.00234716
-0.000786288
0.00234716
0.00193887
0.00140227
0.00170689
0.00145446
0.00267125
0.00146626
0.00068541
0.00140974
0.00115306
0.000196592
0.000231653
0.000225827
-9.6816e-05
3.63457e-06
-0.000483345
-0.000422978
2.11181e-05
-0.000733471
-0.000691541
-0.000133059
-0.000518063
-0.000839451
-0.000389814
-0.000134803
-0.00104612
-0.000391946
0.000286482
-0.00133573
0.000494028
0.000456492
-0.00153764
0.00214167
0.00086656
-0.00216275
0.00266939
0.000859452
-0.00298893
0.00208408
0.000864451
-0.0036628
0.000701828
0.00119359
-0.00350436
-0.00149615
0.00184787
-0.00232316
-0.00420356
0.0022996
-0.00732775
0.00208361
0.000904069
-0.00473646
0.000816652
0.00151612
-0.00360259
0.00173261
0.00193725
-0.00162855
0.00193725
0.0020206
0.000896621
0.00166292
0.00195941
0.00235679
0.00149199
0.0014667
0.00166242
0.00123219
0.000807486
0.000817896
0.000710149
0.000295085
0.000511758
3.15105e-05
-0.000190279
0.000456743
-0.000609886
-0.000658209
0.000235169
-0.000567061
-0.00104605
-0.00011759
-0.000253198
-0.00134489
-0.000215798
5.92356e-05
-0.00146614
0.000386046
0.000311921
-0.00127465
0.00176839
0.000620964
-0.00121088
0.00264941
0.000723463
-0.00147041
0.00240731
0.00078865
-0.00178085
0.00108748
0.0011624
-0.00183523
-0.00143843
0.00171557
-0.00129754
-0.00483367
0.00190498
-0.00841036
0.00107907
0.000977082
-0.0054909
-0.00036114
0.00141548
-0.00401739
0.000932229
0.00166848
-0.00213457
0.00166848
0.00193245
0.000307192
0.00176418
0.00210771
0.00186185
0.00167351
0.00184328
0.00171718
0.00151304
0.00127559
0.00129377
0.00119912
0.000696255
0.00108518
0.000684078
0.000266484
0.000938839
-8.5584e-05
-0.000194015
0.000697659
-0.000427298
-0.000724208
0.000421812
-0.000222295
-0.00117228
0.000294962
8.01132e-05
-0.00131579
0.000490894
0.000300803
-0.00100363
0.00132955
0.000556503
-0.000558487
0.00226371
0.000803193
-0.000342801
0.00231738
0.00106077
-0.000374908
0.0012495
0.00165337
-0.00069609
-0.00115208
0.00217685
-0.000698258
-0.00488512
0.00196035
-0.00868822
0.000525039
0.00100806
-0.00611322
-0.00109631
0.00134097
-0.00407045
0.000357844
0.00138329
-0.00221921
0.00138329
0.00153149
-1.65776e-05
0.00182652
0.00172893
0.00150843
0.00191002
0.00158278
0.00173169
0.00182537
0.00117203
0.00163112
0.00158817
0.000718528
0.00155662
0.00116468
0.000419177
0.0014037
0.000483943
0.000226432
0.00118053
-1.78676e-05
-7.47519e-05
0.00101963
0.000109401
-0.000464789
0.000965377
0.000432148
-0.000694998
0.000957113
0.000591752
-0.000490076
0.00126337
0.000735112
-3.4443e-06
0.00191975
0.00101919
0.000400927
0.00202615
0.00144116
0.00043288
0.00114899
0.0021424
-2.51355e-05
-0.000984053
0.00256401
-0.000347976
-0.00463584
0.00196864
-0.0084922
7.46915e-05
0.000896536
-0.00648973
-0.001592
0.00116086
-0.00390634
-4.5797e-05
0.00105843
-0.00201436
0.00105843
0.00102695
-0.00010093
0.0016552
0.00110662
0.00128922
0.00188955
0.00101277
0.00166005
0.0018672
0.000781376
0.00172783
0.00170526
0.000538778
0.00174668
0.0014076
0.000396954
0.00165265
0.000913181
0.000374691
0.00150669
0.000467322
0.000321361
0.00140189
0.000497706
0.000171758
0.00134932
0.000763757
4.85384e-05
0.00127767
0.000887602
0.000165669
0.00131397
0.000950915
0.000543068
0.00165028
0.00119239
0.000848952
0.00169862
0.00163244
0.000769403
0.000929073
0.00224243
0.000303366
-0.000967839
0.00247855
-0.000101798
-0.0043136
0.00173041
-0.00800088
-0.000373932
0.000608542
-0.00648245
-0.00202859
0.000808378
-0.00361878
-0.000433726
0.000664823
-0.00172726
0.000664823
0.000497825
3.92562e-05
0.00119897
0.000516266
0.00107907
0.00147499
0.000508304
0.00144681
0.00150866
0.000461901
0.00157422
0.00145028
0.000411475
0.00164426
0.00130408
0.000400447
0.00162242
0.00101373
0.000456619
0.00156751
0.000707828
0.000531062
0.00148957
0.000670294
0.000547033
0.00141124
0.000841182
0.000553627
0.00131594
0.000928234
0.000669255
0.00125436
0.000940524
0.000949965
0.0013657
0.00109685
0.00113626
0.00134109
0.00143835
0.000977431
0.000699723
0.00188666
0.000526116
-0.000986101
0.00200023
0.000129929
-0.00393503
0.00112478
-0.00725757
-0.00087793
-4.93328e-05
-0.00574168
-0.00257413
7.88247e-05
-0.00324925
-0.00111126
-0.000111928
-0.00134576
-0.000111928
-5.90794e-05
-0.000146501
0.000423545
2.54163e-05
0.000669536
0.000648844
0.000129199
0.000951833
0.000663557
0.000229739
0.00109295
0.00066881
0.000341823
0.00123214
0.000690799
0.000448373
0.00134121
0.000668591
0.000534808
0.00143349
0.000615949
0.000649418
0.00133625
0.000570673
0.000783851
0.00114181
0.000575154
0.000913272
0.000979123
0.000549129
0.00107783
0.000852858
0.000501249
0.00129727
0.000850974
0.000577489
0.00143084
0.000808717
0.000820243
0.00137295
0.000253086
0.0011374
0.00100295
-0.00100108
0.00103119
0.000518969
-0.00328988
9.75719e-05
-0.00612057
-0.00153622
-0.0010461
-0.00396847
-0.00339135
-0.00152567
-0.00226693
-0.0023747
-0.00160586
-0.00118538
-0.00160586
-0.00137913
-0.000555185
-0.00127469
-0.000935766
-0.000107404
-0.00111297
-0.000522381
7.59762e-05
-0.00108662
-0.00013926
0.000178027
-0.00106967
0.000214756
0.000319642
-0.000990714
0.000488728
0.000516863
-0.000865756
0.000672709
0.000769405
-0.000707981
0.000887822
0.000617306
-0.000728046
0.00112156
0.000366407
-0.000815032
0.00135496
0.000202298
-0.000889524
0.0015947
9.07815e-05
-0.000936797
0.00190208
2.45116e-05
-0.000875778
0.00223739
-4.37492e-05
-0.000692276
0.0023798
-0.000397876
-0.000546789
0.00217882
-0.00106383
-0.000752509
0.00138756
-0.00225132
-0.00146297
-0.004101
-0.00250564
-0.00326988
-0.00476918
-0.00487527
-0.00497665
-0.00546797
-0.00546797
-0.00549378
-0.00600145
-0.00511232
-0.00657343
-0.00447448
-0.00719677
-0.00360092
-0.00779779
-0.00244086
-0.00830356
-0.000960693
-0.00860604
0.000831261
-0.00849395
0.00241946
-0.00839858
0.00366984
-0.00831437
0.00461454
-0.00793923
0.00529371
-0.00740571
0.00575953
-0.00678426
0.00603497
-0.00610155
0.00594764
-0.00544215
0.0052679
-0.00484722
0.00350487
-0.00428688
-0.00396572
0.00172685
-0.00015124
0.0035048
0.00265047
0.000433495
0.00330472
0.00258239
0.00128861
0.00251306
0.00152409
0.00211659
0.00152409
-0.000170814
0.00244138
0.000983048
-0.000321303
0.000347495
0.000592398
-9.91617e-06
-0.000272408
0.000135442
-0.00013757
-0.000148435
0.000328494
-0.00016813
-0.000254153
0.000109214
-0.000208685
-0.000325784
0.000214551
-4.72574e-05
-0.000431152
0.000314385
7.42358e-05
-0.000408036
0.00043334
-0.000838151
0.00103541
0.000725576
-0.00231289
0.00215504
0.000631543
-0.00370669
0.00207781
0.000705759
-0.00483567
0.00154478
0.00132457
-0.00538161
0.000659941
0.00227847
-0.00502863
-0.000521411
0.00330254
-0.00342455
-0.00188425
0.00408738
-0.00363988
0.00427651
0.000685851
1.55041e-05
0.0018697
0.00141226
0.000395951
0.00216262
0.00170689
0.00140227
0.00193887
0.00151001
0.00251033
0.00151001
0.00134545
0.00272781
0.00134439
0.000707233
0.0011488
0.000989962
0.000330381
7.7927e-05
0.00025234
-7.37075e-06
-7.01838e-05
-0.000223851
-0.000536691
-2.47964e-05
-0.000433512
-0.000961016
-0.000255186
-0.000164338
-0.001197
-0.000464301
0.000134327
-0.00154718
-0.000150233
0.000378853
-0.00172339
0.00106401
0.000604098
-0.00195547
0.00255894
0.000694726
-0.00248713
0.00290233
0.000566579
-0.00312245
0.00237835
0.000666194
-0.003536
0.0011392
0.00112787
-0.00327603
-0.000739513
0.001806
-0.00209526
-0.00301854
0.00225312
-0.00555526
0.00190373
0.000742984
-0.00107077
0.00115993
0.00124063
-0.000211903
0.00184281
0.00166292
0.000896621
0.0020206
0.00181628
0.00220361
0.00181628
0.00180671
0.00259408
0.0016353
0.00136749
0.00155733
0.00126288
0.000787495
0.000656285
0.000711785
0.00028614
0.000346632
0.000116046
-0.000338405
0.00036034
-0.000370483
-0.000974053
5.57723e-05
-0.000242376
-0.00144353
-0.000300756
5.27328e-05
-0.00176533
-7.6643e-05
0.000307435
-0.0018719
0.000949328
0.000533168
-0.00178181
0.00241239
0.000677404
-0.00186623
0.00309788
0.000612324
-0.00214079
0.00278914
0.000652413
-0.0023274
0.00149336
0.000994848
-0.00207815
-0.000747723
0.00147452
-0.00130183
-0.00352181
0.00163192
-0.00647202
0.000693993
0.00111044
-0.00283068
0.000288332
0.00143872
-0.000858767
0.0012508
0.00176418
0.000307192
0.00193245
0.00203413
0.00166371
0.00203413
0.0021117
0.00227846
0.00191155
0.00179785
0.00174889
0.00163533
0.00124767
0.00115235
0.00125323
0.000682629
0.000873764
0.000721981
0.000126781
0.000783313
4.72852e-05
-0.000579682
0.000504052
-0.000169119
-0.00124731
9.1578e-05
5.29886e-05
-0.00167413
0.000121077
0.00030921
-0.00174763
0.000796783
0.000526849
-0.0015114
0.00203835
0.000694311
-0.00128338
0.00292349
0.000749548
-0.00121523
0.002887
0.000894765
-0.00123447
0.0018085
0.00135747
-0.00119343
-0.000470773
0.00185885
-0.00082477
-0.0035839
0.00165378
-0.00688878
0.000117029
0.0012941
-0.00413179
-0.00108931
0.00165096
-0.00130742
0.000449629
0.00182652
-1.65776e-05
0.00153149
0.00201053
0.0012957
0.00201053
0.0020859
0.00203727
0.00207582
0.00185295
0.0018845
0.00192271
0.00140024
0.00155635
0.00163687
0.000892413
0.00135759
0.00118867
0.000432069
0.00120843
0.000519167
-0.000134281
0.000966086
8.64433e-05
-0.000770468
0.000624857
0.000212304
-0.00124415
0.000542423
0.000484482
-0.00138183
0.000859146
0.000667068
-0.00112322
0.00170288
0.000811958
-0.000728301
0.00258941
0.000958333
-0.000438246
0.00278324
0.00125485
-0.000317993
0.00195361
0.00187704
-0.000467827
-0.000124117
0.00236719
-0.000475458
-0.00335084
0.0017432
-0.00702412
-0.000265428
0.00111078
-0.00509925
-0.00173533
0.00153937
-0.00164252
-0.000139288
0.0016552
-0.00010093
0.00102695
0.0017099
0.0011863
0.0017099
0.00174404
0.00191467
0.00197801
0.00158705
0.00194765
0.00196103
0.0012778
0.00178438
0.00178647
0.000920072
0.00166414
0.00145877
0.000580936
0.00153397
0.000926767
0.000210558
0.00135473
0.000449053
-0.000247594
0.00112096
0.000459753
-0.000655202
0.000987866
0.000725917
-0.000837156
0.00105385
0.000874853
-0.000656505
0.00150417
0.000968972
-0.000237659
0.00222444
0.00113851
0.000128112
0.00253068
0.00151921
0.000274757
0.00188375
0.00216564
-1.60861e-05
0.000110671
0.0025346
-0.000167729
-0.00304497
0.00157618
-0.00691211
-0.000653672
0.000691784
-0.00558856
-0.00223107
0.00117216
-0.00194897
-0.000607662
0.00119897
3.92562e-05
0.000497825
0.00120676
0.0011707
0.00120676
0.0012642
0.00174621
0.001586
0.0012288
0.00180491
0.00168679
0.00109616
0.00172177
0.00164552
0.000913346
0.001667
0.00148403
0.000698671
0.0016029
0.00115947
0.00044233
0.0015201
0.000798786
0.000149476
0.00136057
0.000723534
-0.000156873
0.00120227
0.000933127
-0.00033982
0.00112778
0.00103724
-0.000224412
0.00127694
0.00105234
0.00016652
0.00175959
0.00117076
0.000546047
0.00208119
0.00150831
0.000640857
0.00163889
0.0020367
0.000389267
0.000202378
0.00216011
0.000164644
-0.0027326
0.00103703
-0.00650595
-0.00111945
-0.000106862
-0.00525934
-0.00279649
0.000290641
-0.00215289
-0.00130484
0.000423545
-0.000146501
-5.90794e-05
0.000529157
0.000959472
0.000529157
0.000709807
0.00133917
0.000875231
0.000837385
0.00134898
0.000991899
0.000889932
0.00131384
0.00102419
0.000893597
0.00133615
0.00101797
0.000817858
0.00139685
0.000950377
0.000618418
0.00148876
0.000846724
0.000419096
0.00135416
0.000776393
0.000273728
0.00110127
0.000821512
0.000187093
0.000934722
0.000828817
0.000259894
0.000904761
0.000800621
0.000565613
0.00115066
0.000880696
0.000914389
0.00142211
0.00113054
0.00103095
0.0012005
0.00145921
0.00095832
-7.58834e-05
0.00138208
0.000617133
-0.00241903
0.000125188
-0.00567479
-0.00175024
-0.00120116
-0.00386122
-0.00358831
-0.00145664
-0.00183451
-0.00243761
-0.00127469
-0.000555185
-0.00137913
-0.000882599
0.000175282
-0.000882599
-0.000432791
0.000415408
-0.00063902
-5.38717e-05
0.000475669
-0.000592235
0.000258109
0.000542997
-0.000610812
0.000529928
0.000678877
-0.000605263
0.000724279
0.000904406
-0.000567669
0.000752601
0.00123512
-0.000482665
0.000844339
0.00104739
-0.00051302
0.000944956
0.000715868
-0.000530251
0.00101923
0.000511724
-0.000540803
0.0011196
0.000388505
-0.000520918
0.00140053
0.000372954
-0.000379006
0.00185312
0.000412114
-0.000134878
0.00219548
0.000252276
5.9067e-05
0.00215397
-0.000495928
-0.000290959
0.00152667
-0.00187093
-0.00138378
-0.00398657
-0.00266719
-0.00373613
-0.00489428
-0.00547208
-0.00507521
-0.00600145
-0.00549378
-0.00591381
-0.00591381
-0.00554158
-0.00653025
-0.00497625
-0.00728643
-0.00414977
-0.00808127
-0.00295068
-0.00882378
-0.00128162
-0.00937069
0.00090758
-0.00944803
0.00281017
-0.00925378
0.00418196
-0.0089703
0.00511471
-0.00836026
0.00570107
-0.00760357
0.00607151
-0.00678175
0.00632576
-0.00594368
0.00635277
-0.00521689
0.00574955
-0.00473993
0.00389102
-0.00429927
-0.00406128
0.00130619
0.00185843
0.000340175
0.00186272
0.0020941
0.000654082
0.00172952
0.00240792
0.000238344
0.000983048
0.00244138
-0.000170814
8.96359e-05
0.00178682
8.96359e-05
0.000246129
-0.000136385
0.000572285
0.000346789
-0.00034169
0.000376461
0.000105021
-8.73517e-05
0.000657599
-0.000198581
-0.00019844
0.000611253
-0.000396116
-0.000385416
0.000797504
-0.000347173
-0.000531461
0.000796906
-0.000290477
-0.000399154
0.000775805
-0.000945666
0.000967513
0.000413229
-0.00190844
0.00191443
-0.000320135
-0.00291549
0.00219738
-0.000484585
-0.00380564
0.00204518
0.000169534
-0.0042973
0.00140396
0.00136616
-0.00405682
0.000411716
0.00265034
-0.00276506
-0.000767466
0.00356308
-0.00222011
0.00373156
0.000737582
0.00216765
0.000822892
0.00124519
0.00234084
0.00140827
0.00146626
0.00267125
0.00145446
0.00134439
0.00272781
0.00134545
0.00126899
0.0019376
0.00126899
0.000837
0.000492326
0.000793242
0.000579379
-0.000264334
0.0004326
0.000179888
-0.000146128
0.000234409
-0.000556018
-2.30856e-05
0.000127034
-0.00112485
-0.000344112
0.000363186
-0.00142929
-0.000575852
0.000483156
-0.0017594
-0.000214396
0.000524198
-0.00183293
0.000950816
0.000694318
-0.00205083
0.00229328
0.000533758
-0.00244702
0.00289709
0.000263038
-0.00285853
0.00278191
0.000340968
-0.00307936
0.00191769
0.000834959
-0.00281751
0.000476407
0.00147946
-0.00179943
-0.00145658
0.00192415
-0.00369175
0.00157594
0.000651774
0.00138044
0.00129537
0.00111634
0.00191295
0.00180612
0.00149199
0.00235679
0.00195941
0.0016353
0.00259408
0.00180671
0.00157142
0.00206536
0.00157142
0.0011896
0.000982416
0.0011546
0.000725468
0.000222148
0.000689436
0.000287418
0.000107621
0.000300343
-0.000409542
0.000260174
4.32116e-05
-0.00113411
-7.83773e-05
0.00021645
-0.00161988
-0.000440485
0.000403139
-0.00194408
-0.000129533
0.000546771
-0.00206631
0.000917508
0.000688695
-0.00209338
0.00228068
0.000717074
-0.00224636
0.0030649
0.000597478
-0.00246398
0.0030376
0.000614337
-0.00253947
0.00208304
0.000904979
-0.00212969
0.000266853
0.00127429
-0.00125695
-0.00196951
0.00127212
-0.00466536
0.000410647
0.0010819
-0.00066713
0.00125399
0.00135384
0.00114458
0.00174723
0.00167351
0.00186185
0.00210771
0.00191155
0.00227846
0.0021117
0.00191179
0.00206486
0.00191179
0.00160432
0.00134791
0.0015773
0.00111373
0.000786283
0.00117968
0.000616169
0.000586163
0.000740992
8.00821e-06
0.000630539
0.000285076
-0.000797778
0.000344792
0.000213492
-0.00147422
-0.000102027
0.000390966
-0.00189198
2.98971e-05
0.000567534
-0.00201715
0.000847071
0.000722452
-0.00194797