/*--------------------------------*- C++ -*----------------------------------*\
  =========                 |
  \\      /  F ield         | OpenFOAM: The Open Source CFD Toolbox
   \\    /   O peration     | Website:  https://openfoam.org
    \\  /    A nd           | Version:  8
     \\/     M anipulation  |
\*---------------------------------------------------------------------------*/
FoamFile
{
    version     2.0;
    format      ascii;
    class       volVectorField;
    location    "1600";
    object      U;
}
// * * * * * * * * * * * * * * * * * * * * * * * * * * * * * * * * * * * * * //

dimensions      [0 1 -1 0 0 0 0];

internalField   nonuniform List<vector> 
4000
(
(0.00794201 -0.0245248 0.00794201)
(0.0163516 -0.0175006 0.0074203)
(0.0206609 -0.0106012 0.00625109)
(0.0196517 -0.00418769 0.00530813)
(0.010715 0.00241986 0.00433584)
(-0.00708379 0.000145187 0.00158939)
(-0.00146118 -0.00075248 -0.00033932)
(-0.00319516 -0.000881093 -0.000468848)
(-0.000239062 -0.00116242 -0.000740229)
(0.000658554 -0.00125579 -0.000823551)
(0.00291477 -0.00122178 -0.000597715)
(0.00366101 -0.00118865 -0.000289731)
(0.00460695 -0.00106941 2.18057e-06)
(0.00648009 0.00123678 0.00247651)
(-0.00817778 0.00386115 0.00292402)
(-0.0186078 -0.000175883 0.00276111)
(-0.0251837 -0.00384001 0.00313424)
(-0.0257649 -0.00813011 0.0037406)
(-0.020788 -0.014141 0.00431783)
(-0.0103849 -0.0225756 0.00465224)
(0.00338069 -0.0336022 0.00338069)
(0.00811172 -0.0233496 0.00354132)
(0.0101852 -0.0117595 0.00291234)
(0.0103855 0.00203099 0.00168251)
(0.00675012 0.00991798 0.00227494)
(-0.000346863 0.00374091 0.00137514)
(-0.00159713 -0.000675252 -0.000648737)
(-0.0023517 -0.000529824 -0.00181713)
(-0.000642305 -0.000246952 -0.00201611)
(1.24909e-05 -0.000249069 -0.00182694)
(0.000615451 -0.000190611 -0.0014611)
(0.00116701 4.96427e-05 -0.00022572)
(-0.00147262 -0.00128236 -0.000346873)
(0.00240895 0.00100962 0.00119395)
(-0.00140659 0.00951994 0.00234726)
(-0.00478084 0.00759737 0.00185633)
(-0.00993499 0.00254857 0.00205006)
(-0.0115013 -0.00668885 0.0030441)
(-0.00987492 -0.0180699 0.00329121)
(-0.00349526 -0.0322149 0.00321131)
(0.00141251 -0.0420754 0.00141251)
(0.00328091 -0.0308182 0.00218585)
(0.00261522 -0.0174669 0.00222589)
(0.00401447 -0.00155888 0.00216519)
(0.00605178 0.00853409 0.0019569)
(0.00408095 0.00451385 0.00163981)
(0.00261697 0.00185352 0.00131238)
(-0.00153202 0.00103166 -0.000130881)
(-0.000564419 0.00105448 -0.00161672)
(0.000484688 0.000922357 -0.00159212)
(0.00115313 0.000556183 -0.000882022)
(0.00136967 0.000278366 0.000323215)
(-0.000743288 -0.00190715 -0.00012085)
(-0.0011373 -0.00189737 7.6067e-05)
(0.000165691 0.00727869 0.001936)
(0.000895356 0.00666142 0.00202617)
(0.00132533 0.00120135 0.00324816)
(0.000811027 -0.0105813 0.00378579)
(-0.00169674 -0.0250479 0.00317481)
(3.96996e-05 -0.040958 0.00260001)
(0.000462487 -0.0448544 0.000462487)
(0.0005722 -0.0334872 0.00166224)
(-0.0017499 -0.0203307 0.002179)
(-0.00142938 -0.00781763 0.00305489)
(0.00414889 0.00337856 0.00335533)
(0.00538322 0.00271527 0.00332265)
(0.00519125 0.00262025 0.00314303)
(0.00241327 0.00281599 0.00231628)
(0.000872202 0.00232761 0.000861851)
(0.00152845 0.00198005 5.90449e-05)
(0.0023683 0.0018481 0.000724449)
(0.00236877 0.00193093 0.00159452)
(0.00129911 0.00127762 0.00195846)
(-0.000103462 -0.000729234 0.00187057)
(0.000920044 0.00201663 0.00287019)
(0.0043796 0.000271575 0.00359108)
(0.00657458 -0.00583102 0.00421125)
(0.00643367 -0.0149471 0.00375552)
(0.00317278 -0.0278577 0.0029727)
(0.00189449 -0.043664 0.00223581)
(-0.000171601 -0.0449162 -0.000171601)
(-0.00107207 -0.0343815 0.00126114)
(-0.00440609 -0.0234237 0.00171985)
(-0.00470259 -0.0143226 0.0026215)
(-0.00340201 -0.00827304 0.00354429)
(-0.00140058 -0.00518309 0.00373282)
(-0.00078582 -0.00256342 0.003807)
(4.73731e-05 -0.000412336 0.00374696)
(0.000658014 0.000356673 0.00339299)
(0.00180986 0.000468641 0.00323998)
(0.0028672 -0.000738908 0.0034385)
(0.00391508 -0.00205254 0.00362044)
(0.0048207 -0.00316016 0.00353795)
(0.00555737 -0.00451619 0.00331499)
(0.0068724 -0.00597541 0.00336564)
(0.00864624 -0.00822417 0.00336237)
(0.00939745 -0.0125136 0.00307815)
(0.00882266 -0.0197387 0.00261212)
(0.00522292 -0.0303874 0.00226702)
(0.00289516 -0.0441368 0.00179099)
(-0.000763589 -0.0433703 -0.000763589)
(-0.00212292 -0.034412 0.000689783)
(-0.00612092 -0.0257291 0.000686396)
(-0.00690972 -0.0190916 0.000915953)
(-0.00674613 -0.0144072 0.00109086)
(-0.00569154 -0.0118765 0.00126161)
(-0.00437824 -0.0100096 0.00139993)
(-0.00263494 -0.00860564 0.001564)
(-0.000767748 -0.00729723 0.00171843)
(0.00152637 -0.00666398 0.00200389)
(0.00326802 -0.00778035 0.00176183)
(0.00515033 -0.00890165 0.00145281)
(0.00691856 -0.0100009 0.00119056)
(0.00851223 -0.0111452 0.00102113)
(0.00997156 -0.0122675 0.000953138)
(0.0110889 -0.0142478 0.000933411)
(0.0112035 -0.0177517 0.000977813)
(0.010212 -0.0232682 0.00103237)
(0.0061312 -0.0316832 0.00124389)
(0.00346396 -0.0431073 0.00116352)
(-0.00152344 -0.0402652 -0.00152344)
(-0.00316281 -0.0330732 -0.0002375)
(-0.00769242 -0.026725 -0.000772102)
(-0.00883683 -0.022346 -0.00116937)
(-0.00887899 -0.0194449 -0.00155874)
(-0.00777426 -0.0176759 -0.00186571)
(-0.00602699 -0.0163173 -0.00207963)
(-0.00380769 -0.0150876 -0.00216769)
(-0.00145191 -0.0139202 -0.00213724)
(0.00149224 -0.0132419 -0.00182473)
(0.0036759 -0.0141495 -0.00199622)
(0.00596265 -0.0151602 -0.0022621)
(0.00816922 -0.0160567 -0.00240751)
(0.0101575 -0.0168852 -0.00238053)
(0.0118007 -0.0177582 -0.00218763)
(0.0128362 -0.0190867 -0.00182919)
(0.0127668 -0.021387 -0.00133527)
(0.0114546 -0.0251487 -0.000738517)
(0.00684264 -0.0313601 -7.12629e-06)
(0.00403255 -0.0403247 0.000282337)
(-0.00278549 -0.0345833 -0.00278549)
(-0.00481746 -0.0292604 -0.00186967)
(-0.00972732 -0.0251843 -0.00272428)
(-0.0111238 -0.0226964 -0.00356366)
(-0.0111118 -0.0211509 -0.00430096)
(-0.00972927 -0.0202662 -0.00489852)
(-0.00746098 -0.0196691 -0.00539378)
(-0.00466294 -0.0191251 -0.00579802)
(-0.0017343 -0.0184628 -0.00607062)
(0.00146156 -0.0179948 -0.00591311)
(0.0039091 -0.018568 -0.00596194)
(0.00652345 -0.0191654 -0.0060104)
(0.00919145 -0.0195795 -0.00588083)
(0.011631 -0.0198691 -0.00558761)
(0.0136262 -0.0201766 -0.00514458)
(0.014844 -0.020776 -0.00454243)
(0.0147993 -0.0220168 -0.00376339)
(0.0132157 -0.0242068 -0.00280666)
(0.00811324 -0.0282726 -0.00168349)
(0.00501909 -0.0347062 -0.00109291)
(-0.00498589 -0.025492 -0.00498589)
(-0.00791233 -0.0217815 -0.00479999)
(-0.0128951 -0.0196027 -0.00587733)
(-0.0143626 -0.0187202 -0.00698079)
(-0.0141771 -0.018424 -0.00792704)
(-0.0125016 -0.0184323 -0.00869508)
(-0.00976646 -0.0185267 -0.00928619)
(-0.00632055 -0.0185316 -0.00968861)
(-0.00257494 -0.0183072 -0.00983614)
(0.00124407 -0.0180728 -0.009412)
(0.00441034 -0.018371 -0.00944955)
(0.00760681 -0.0186726 -0.00958657)
(0.0109246 -0.0187189 -0.00945743)
(0.0138871 -0.0185544 -0.00911024)
(0.016246 -0.0182962 -0.00857809)
(0.0176888 -0.0181221 -0.00784561)
(0.0177323 -0.0182585 -0.00689915)
(0.0160435 -0.0190413 -0.00572592)
(0.0107587 -0.0212212 -0.00435213)
(0.00695876 -0.0255056 -0.00342474)
(-0.00856389 -0.0155011 -0.00856389)
(-0.0135603 -0.0121413 -0.00988671)
(-0.0184416 -0.0105347 -0.0118653)
(-0.0197394 -0.0098945 -0.0136623)
(-0.0192356 -0.00955017 -0.0152983)
(-0.0171994 -0.00927955 -0.0166912)
(-0.0139831 -0.00895293 -0.0178559)
(-0.0098076 -0.00847822 -0.0187637)
(-0.00502689 -0.00778463 -0.0192437)
(0.000422088 -0.00702611 -0.0187341)
(0.00570364 -0.0075849 -0.0185787)
(0.00998573 -0.00819541 -0.0186093)
(0.0142257 -0.00865852 -0.0181036)
(0.0178271 -0.00896989 -0.0172567)
(0.0205833 -0.00918273 -0.016169)
(0.0223034 -0.00936211 -0.0148445)
(0.0226053 -0.00962087 -0.0132372)
(0.0210856 -0.0101942 -0.0113807)
(0.0159019 -0.0117772 -0.00918431)
(0.0103462 -0.0154303 -0.00700312)
(0.0074203 -0.0175006 0.0163516)
(0.0148206 -0.0126182 0.0148206)
(0.0191228 -0.00720861 0.0120071)
(0.0179716 -0.00187665 0.00912294)
(0.0102944 0.00394203 0.00660976)
(-0.00413354 0.00158199 0.00354005)
(-0.000820897 -0.00123305 0.000225136)
(-0.00240599 -0.000807217 -0.000444607)
(-0.000120215 -0.00101756 -0.00106366)
(0.000166088 -0.00104419 -0.00115894)
(0.00187209 -0.00112118 -0.000630343)
(0.00197373 -0.00170016 -0.000260942)
(0.00487396 -0.00158228 0.00124313)
(3.08463e-05 0.00408176 0.00505824)
(-0.0115867 0.00369448 0.00503763)
(-0.0202571 3.73779e-05 0.00507232)
(-0.0258345 -0.0034161 0.00609073)
(-0.026052 -0.00737391 0.00761776)
(-0.0209369 -0.0129062 0.00928866)
(-0.0109745 -0.020824 0.0103026)
(0.00354132 -0.0233496 0.00811172)
(0.00832542 -0.0168354 0.00832542)
(0.0109068 -0.00739669 0.00673235)
(0.0110616 0.00394405 0.00432486)
(0.00810411 0.0105192 0.00402115)
(0.00265644 0.00559131 0.00329889)
(0.0014226 -0.000268259 0.00073609)
(-0.00114056 -0.000798282 -0.00220164)
(-0.000538834 -0.000540926 -0.00295176)
(-0.00136774 -0.000575491 -0.00250024)
(-0.0015139 -0.000830109 -0.00148895)
(-0.00188568 -0.0012375 0.000144002)
(-0.00322896 0.000290984 0.000596697)
(-0.00200291 0.00659479 0.00286064)
(-0.00497708 0.0101057 0.0034826)
(-0.0085046 0.00781839 0.00289502)
(-0.0127324 0.00281655 0.00338463)
(-0.0141074 -0.00558102 0.00539916)
(-0.0116715 -0.0161341 0.00679978)
(-0.00489997 -0.0297517 0.00695685)
(0.00218585 -0.0308182 0.00328091)
(0.00534197 -0.0241824 0.00534197)
(0.00602908 -0.0133783 0.0052631)
(0.0075784 6.67229e-05 0.0040566)
(0.00794996 0.00910148 0.0035155)
(0.00613976 0.00594899 0.00317191)
(0.0044926 0.00221522 0.00222163)
(0.00125008 0.00109453 0.000203794)
(0.000149812 0.00104174 -0.00241218)
(-0.000598171 0.000694061 -0.0024474)
(-0.00144724 -0.000395608 -0.00137429)
(-0.00266927 -0.00165334 -0.000223121)
(-0.00400422 -0.00108261 -2.03028e-05)
(-0.00316333 0.00441349 0.00124545)
(-0.00228523 0.00958998 0.00281759)
(-0.00233831 0.00830054 0.00311345)
(-0.00317107 0.00240475 0.00455564)
(-0.00383726 -0.00823309 0.00639688)
(-0.00503386 -0.0220333 0.00678179)
(-0.00186424 -0.038109 0.00554426)
(0.00166224 -0.0334872 0.0005722)
(0.00417807 -0.0267996 0.00417807)
(0.0033102 -0.0154727 0.00551392)
(0.00378156 -0.0020109 0.00549477)
(0.00669457 0.00679053 0.00490531)
(0.00705207 0.0057921 0.00464479)
(0.00612361 0.00414285 0.00408743)
(0.00347495 0.00353314 0.00272248)
(0.00161871 0.0031316 0.000225422)
(0.0010833 0.00255648 -0.00124607)
(0.000601959 0.00206154 -0.000383283)
(-0.000597802 0.00151599 0.00119424)
(-0.00260979 0.000929417 0.00128973)
(-0.00300028 0.00248747 0.00151501)
(-0.00103973 0.00695545 0.00346854)
(0.00129164 0.00675944 0.00470092)
(0.00269586 0.00212426 0.00677096)
(0.00239267 -0.00755429 0.00786342)
(-0.00109161 -0.0232108 0.00732126)
(-0.000336492 -0.0406668 0.00483279)
(0.00126114 -0.0343815 -0.00107207)
(0.00370087 -0.0274684 0.00370087)
(0.0015189 -0.0164488 0.00581645)
(0.00104678 -0.00462532 0.00683582)
(0.00287318 0.00279414 0.00717417)
(0.00387886 0.00400307 0.0068225)
(0.00336364 0.00453793 0.0061875)
(0.00220144 0.00513247 0.00511861)
(0.00139071 0.00503688 0.00346501)
(0.00165091 0.00463129 0.00238354)
(0.00212443 0.00412458 0.00300051)
(0.00211607 0.00369398 0.00409055)
(0.00151823 0.00315214 0.00455308)
(0.000997179 0.00258988 0.00456674)
(0.00214508 0.00386809 0.00548714)
(0.00422311 0.00325664 0.00669468)
(0.00542026 -0.000920551 0.00803906)
(0.00469472 -0.00938339 0.00826329)
(0.000786781 -0.0235107 0.0074099)
(0.000507387 -0.0405091 0.00412326)
(0.000689783 -0.034412 -0.00212292)
(0.00329631 -0.0267788 0.00329631)
(6.64816e-05 -0.0162893 0.0056392)
(-0.000570717 -0.0061057 0.0067872)
(-0.000355032 0.000371361 0.00757417)
(0.000405188 0.00265509 0.00751651)
(0.000269823 0.00395657 0.00716511)
(0.000274901 0.00484963 0.00657343)
(0.000528986 0.00521838 0.00567797)
(0.00154324 0.00518714 0.00516282)
(0.00265035 0.00475383 0.00547105)
(0.00349391 0.00432709 0.00595695)
(0.00395478 0.00378205 0.00622047)
(0.00432107 0.00297301 0.00631257)
(0.00507078 0.00257686 0.00666999)
(0.00622488 0.00122237 0.00733107)
(0.00639232 -0.00287497 0.00782516)
(0.00537073 -0.0107909 0.00766046)
(0.00136615 -0.0236882 0.00673055)
(0.00112107 -0.038824 0.00305795)
(-0.0002375 -0.0330732 -0.00316281)
(0.00238639 -0.0249675 0.00238639)
(-0.00171952 -0.015349 0.00464487)
(-0.00214059 -0.00751476 0.00552534)
(-0.0024666 -0.0023314 0.0059165)
(-0.00180943 0.000329121 0.00626339)
(-0.0011702 0.00207498 0.00649652)
(-0.000453627 0.00316024 0.00643255)
(0.000379603 0.00359768 0.006156)
(0.0015974 0.00350893 0.00599439)
(0.00281366 0.00309048 0.00611738)
(0.00393879 0.00268488 0.00624448)
(0.00488054 0.00217703 0.00627439)
(0.00572635 0.00140166 0.00624266)
(0.00663203 0.000497066 0.00622329)
(0.00740265 -0.00130751 0.00623647)
(0.00708716 -0.00495754 0.0063713)
(0.00605689 -0.0118922 0.00617878)
(0.00191604 -0.0229745 0.00525095)
(0.00189028 -0.0357751 0.00145777)
(-0.00186967 -0.0292604 -0.00481746)
(0.00011568 -0.0213036 0.00011568)
(-0.00432685 -0.0141002 0.00184705)
(-0.00495157 -0.00847044 0.00205553)
(-0.0051906 -0.00464544 0.00177433)
(-0.00450096 -0.00242262 0.0015659)
(-0.0031898 -0.000583594 0.00189827)
(-0.00152491 0.00133865 0.00282266)
(0.000107878 0.00305816 0.00379839)
(0.00162605 0.00415053 0.00452695)
(0.00300809 0.00346893 0.00434774)
(0.00447749 0.00216656 0.00361964)
(0.00600447 0.000793914 0.00285116)
(0.00753568 -0.000580157 0.00222776)
(0.00885402 -0.00183666 0.00199937)
(0.00956311 -0.00341448 0.00226345)
(0.00916411 -0.00635396 0.00285493)
(0.00798737 -0.0119594 0.00313715)
(0.00351991 -0.0205422 0.00248857)
(0.00328751 -0.0306391 -0.000982084)
(-0.00479999 -0.0217815 -0.00791233)
(-0.00501137 -0.0159919 -0.00501137)
(-0.00919578 -0.0118137 -0.00435177)
(-0.0098717 -0.00949676 -0.00468985)
(-0.00944851 -0.00826272 -0.00528704)
(-0.00804263 -0.00775892 -0.00582414)
(-0.00596661 -0.00755294 -0.00599817)
(-0.00345076 -0.00741361 -0.00576644)
(-0.000756181 -0.00718458 -0.00510919)
(0.00166634 -0.00700509 -0.00387607)
(0.00380668 -0.00727291 -0.00426976)
(0.00605203 -0.00769675 -0.00503901)
(0.00834585 -0.00783465 -0.00545992)
(0.0104062 -0.0078258 -0.00558814)
(0.0121287 -0.0077788 -0.0054096)
(0.0132816 -0.00799018 -0.00482013)
(0.013428 -0.00893769 -0.00392408)
(0.0123224 -0.0111722 -0.0031189)
(0.00758429 -0.0156065 -0.00299574)
(0.00599755 -0.0225071 -0.00490111)
(-0.00988671 -0.0121413 -0.0135603)
(-0.0145165 -0.00719897 -0.0145165)
(-0.0193897 -0.00460365 -0.0167456)
(-0.0204964 -0.0032733 -0.0190436)
(-0.0199613 -0.002433 -0.0212702)
(-0.0180302 -0.00172827 -0.0231993)
(-0.0150292 -0.000958949 -0.0248057)
(-0.0110306 -3.82858e-05 -0.026034)
(-0.00620208 0.00111401 -0.0266341)
(-0.000242017 0.0024586 -0.025996)
(0.00650127 0.00168213 -0.0258289)
(0.0111817 0.00064743 -0.0258729)
(0.0154404 -0.000216933 -0.025109)
(0.0187923 -0.000964069 -0.0238443)
(0.0212246 -0.00163667 -0.0222496)
(0.0227263 -0.00227155 -0.0203317)
(0.0229771 -0.00302228 -0.0180241)
(0.0215702 -0.00430719 -0.0154937)
(0.0162891 -0.00699796 -0.0128362)
(0.010969 -0.0123664 -0.0109712)
(0.00625109 -0.0106012 0.0206609)
(0.0120071 -0.00720861 0.0191228)
(0.0156795 -0.00328713 0.0156795)
(0.0140964 0.00094881 0.0114058)
(0.00726149 0.00583319 0.00793332)
(-0.00486381 0.000606154 0.00352074)
(-2.01543e-05 -0.00165124 0.000812255)
(-0.00193915 -0.000694797 -0.000252486)
(-0.000214771 -0.00104819 -0.00106284)
(-0.000362264 -0.00116058 -0.00109361)
(0.000560919 -0.00159177 -0.000269855)
(0.00124329 -0.0026067 0.000133207)
(0.00309003 0.000455996 0.00308177)
(-0.00451739 0.00555626 0.00595936)
(-0.0130112 0.00367656 0.00617865)
(-0.0200586 0.000513869 0.00702208)
(-0.0246006 -0.00266517 0.00899142)
(-0.0245948 -0.00622976 0.0113535)
(-0.0196038 -0.0110892 0.0136364)
(-0.0106109 -0.0178753 0.0145497)
(0.00291234 -0.0117595 0.0101852)
(0.00673235 -0.00739669 0.0109068)
(0.00914129 0.000211197 0.00914129)
(0.00948959 0.00753213 0.00676919)
(0.0072758 0.011441 0.00591305)
(0.00346959 0.00541273 0.00452558)
(0.00191554 -0.000288484 0.00093631)
(-0.000111619 -0.000954657 -0.00218902)
(-0.000791681 -0.000712577 -0.00327154)
(-0.00240998 -0.000962087 -0.00252033)
(-0.00303804 -0.00143188 -0.00101643)
(-0.00408232 -0.00118506 0.000819307)
(-0.00442588 0.00265484 0.00152291)
(-0.00513201 0.0090439 0.00372499)
(-0.00749939 0.010332 0.00392372)
(-0.0108938 0.00811544 0.00365894)
(-0.0142079 0.00341698 0.00463566)
(-0.0149504 -0.00419798 0.00709104)
(-0.0119808 -0.0135422 0.00872168)
(-0.00529253 -0.025093 0.00802258)
(0.00222589 -0.0174669 0.00261522)
(0.0052631 -0.0133783 0.00602908)
(0.00675838 -0.00559082 0.00675838)
(0.00838272 0.00466259 0.00596756)
(0.00828714 0.0106172 0.0054491)
(0.00686583 0.00650476 0.00463638)
(0.00495396 0.00237736 0.00282229)
(0.00197357 0.000966272 6.28286e-05)
(0.000260179 0.000844984 -0.00269044)
(-0.00181955 -5.67938e-05 -0.00268145)
(-0.00355854 -0.00142551 -0.00144955)
(-0.00510856 -0.00154856 -0.000211196)
(-0.00582575 0.00183127 0.000818596)
(-0.0052001 0.00845206 0.00238296)
(-0.00476846 0.0113208 0.00320144)
(-0.00561649 0.00928289 0.00350145)
(-0.00689461 0.00300094 0.00505499)
(-0.00724935 -0.00672346 0.00723447)
(-0.00685549 -0.018848 0.00771574)
(-0.00263454 -0.0324024 0.00468451)
(0.002179 -0.0203307 -0.0017499)
(0.00551392 -0.0154727 0.0033102)
(0.00593447 -0.00783835 0.00593447)
(0.00716511 0.00232967 0.00636297)
(0.00841291 0.00860523 0.00611942)
(0.00817121 0.00697622 0.00570185)
(0.00665054 0.00447883 0.00467445)
(0.00391915 0.00335352 0.00272442)
(0.00182756 0.00281946 -0.000439083)
(0.000213331 0.0018346 -0.00198546)
(-0.00191087 0.000434448 -0.00118849)
(-0.00409691 -0.000122107 4.31599e-05)
(-0.00534041 0.00148861 0.000929719)
(-0.00474325 0.00634394 0.00204825)
(-0.00298772 0.0103205 0.00346426)
(-0.00186282 0.0100807 0.00463423)
(-0.00125211 0.00542182 0.00718397)
(-0.0015968 -0.00496602 0.00910555)
(-0.00375925 -0.0196371 0.00800844)
(-0.00118288 -0.034642 0.00269033)
(0.00171985 -0.0234237 -0.00440609)
(0.00581645 -0.0164488 0.0015189)
(0.00527204 -0.00903522 0.00527204)
(0.0055452 0.000175997 0.0070226)
(0.00674511 0.00645403 0.0074184)
(0.00694258 0.00678637 0.00715227)
(0.00578422 0.00593335 0.00631711)
(0.00377952 0.00548973 0.00472324)
(0.00212027 0.00488404 0.00206033)
(0.00127729 0.00391857 1.86361e-05)
(0.000414373 0.00306583 0.000527054)
(-0.00110556 0.0025716 0.00200896)
(-0.00258001 0.00264396 0.00257963)
(-0.00274125 0.00481068 0.00301914)
(-0.00100628 0.00835456 0.00438579)
(0.000944268 0.00887762 0.00622434)
(0.00198792 0.00498897 0.00884304)
(0.00173658 -0.00390961 0.010097)
(-0.00202168 -0.0192176 0.00791603)
(-0.000202125 -0.0346852 0.000911453)
(0.000686396 -0.0257291 -0.00612092)
(0.0056392 -0.0162893 6.64816e-05)
(0.00424335 -0.00875683 0.00424335)
(0.00395889 -0.000283766 0.00650253)
(0.00431581 0.00546853 0.00745648)
(0.0044788 0.00681473 0.00726815)
(0.00371299 0.00689374 0.00660309)
(0.00261897 0.00686579 0.00544027)
(0.00173732 0.00642723 0.00353752)
(0.00150408 0.00573395 0.00192883)
(0.00144652 0.00524563 0.00211161)
(0.0010305 0.00502563 0.00310511)
(0.000323758 0.00473485 0.00359824)
(0.000108937 0.00514233 0.00380409)
(0.00129509 0.00710279 0.00489515)
(0.00295498 0.00746338 0.00665314)
(0.00352736 0.00420776 0.00869661)
(0.00305299 -0.00393015 0.00925319)
(-0.00109834 -0.018011 0.00678031)
(0.000702697 -0.0333426 -0.00107624)
(-0.000772102 -0.026725 -0.00769242)
(0.00464487 -0.015349 -0.00171952)
(0.00256262 -0.00776714 0.00256262)
(0.00233648 -0.000770985 0.0048512)
(0.00195421 0.0043114 0.00561218)
(0.00215297 0.00593167 0.00547461)
(0.00198492 0.00638348 0.00506623)
(0.00173099 0.00654647 0.00438553)
(0.00154365 0.006227 0.00318769)
(0.00168578 0.00573817 0.0020815)
(0.0020015 0.00535544 0.00202548)
(0.00218982 0.00510046 0.00262264)
(0.00215747 0.00478215 0.00300613)
(0.00228881 0.00469316 0.00317632)
(0.0031609 0.00555593 0.00393235)
(0.00435895 0.00564207 0.00526581)
(0.00442837 0.00280073 0.00684488)
(0.00379253 -0.00419231 0.00704506)
(-0.000268338 -0.0168144 0.0041709)
(0.00188417 -0.0310218 -0.00321032)
(-0.00272428 -0.0251843 -0.00972732)
(0.00184705 -0.0141002 -0.00432685)
(-0.000862141 -0.00565308 -0.000862141)
(-0.00020151 0.00128124 0.00102895)
(-0.000144094 0.00515217 0.00168677)
(0.00036511 0.00657733 0.00145864)
(0.000729981 0.00728786 0.00130406)
(0.00113678 0.00783608 0.00135309)
(0.00155681 0.00806641 0.00130831)
(0.0019537 0.00812605 0.00122236)
(0.00237647 0.00787148 0.0010792)
(0.00288497 0.00749841 0.000983855)
(0.00337805 0.00698345 0.000841374)
(0.00390523 0.00644592 0.00072121)
(0.0047048 0.00632317 0.00109449)
(0.0055806 0.00591901 0.00206909)
(0.00563502 0.00341842 0.00328284)
(0.00537169 -0.00339889 0.00290491)
(0.00172893 -0.0147149 7.42166e-05)
(0.0036798 -0.0271364 -0.00576691)
(-0.00587733 -0.0196027 -0.0128951)
(-0.00435177 -0.0118137 -0.00919578)
(-0.00690996 -0.00627817 -0.00690996)
(-0.00610327 -0.0030549 -0.00593568)
(-0.004452 -0.00111285 -0.00495833)
(-0.00282674 -0.000606002 -0.00491588)
(-0.00133535 -0.000454359 -0.00494723)
(0.000172055 -0.00016096 -0.00465104)
(0.00147372 0.000311963 -0.00422299)
(0.00233173 0.000922948 -0.00373253)
(0.00313729 0.00046724 -0.00372075)
(0.00402336 -0.00057107 -0.00395774)
(0.00497283 -0.00112401 -0.00420392)
(0.00589215 -0.00135054 -0.00438628)
(0.00694609 -0.00107163 -0.00420234)
(0.00813542 -0.000833475 -0.00356322)
(0.00925431 -0.00216053 -0.00350744)
(0.00976084 -0.005586 -0.00411891)
(0.00655666 -0.0117427 -0.0060157)
(0.00672484 -0.0204597 -0.00952377)
(-0.0118653 -0.0105347 -0.0184416)
(-0.0167456 -0.00460365 -0.0193897)
(-0.0215366 -0.00164213 -0.0215366)
(-0.0222509 -0.000108352 -0.0238352)
(-0.0214334 0.000918621 -0.0261815)
(-0.0193813 0.0018128 -0.0284259)
(-0.0163962 0.00282447 -0.0304387)
(-0.0123535 0.00402723 -0.0320154)
(-0.00722534 0.0054876 -0.0327815)
(-0.000671503 0.00720194 -0.0320176)
(0.00727646 0.00626506 -0.0318563)
(0.0124115 0.00493136 -0.0319011)
(0.0168394 0.0037839 -0.0308472)
(0.0200753 0.00275257 -0.0291434)
(0.022297 0.00181621 -0.0270466)
(0.0237606 0.000974819 -0.0246369)
(0.0242598 3.98563e-05 -0.022026)
(0.0232762 -0.0014819 -0.0194285)
(0.0180955 -0.00457873 -0.0169253)
(0.0126288 -0.0107936 -0.0153911)
(0.00530813 -0.00418769 0.0196517)
(0.00912294 -0.00187665 0.0179716)
(0.0114058 0.00094881 0.0140964)
(0.00954152 0.00432968 0.00954152)
(0.00334538 0.0069654 0.00619359)
(-0.00439505 -0.00150218 0.00268712)
(0.00111411 -0.00179877 0.000454494)
(-0.00106941 -0.000378022 0.000719054)
(-0.000288328 -0.00109854 -0.00040278)
(-0.00086336 -0.00142375 -8.6573e-05)
(-0.00100226 -0.00215958 0.000607156)
(0.000719531 -0.00301502 0.00115205)
(1.62097e-06 0.0031528 0.00373558)
(-0.00645186 0.00615717 0.00464466)
(-0.0125146 0.00443514 0.00502662)
(-0.0179589 0.0017681 0.00685264)
(-0.021628 -0.00115557 0.00998199)
(-0.0216687 -0.00431706 0.0133751)
(-0.0171162 -0.00837008 0.0161456)
(-0.00950134 -0.0138842 0.0169011)
(0.00168251 0.00203099 0.0103855)
(0.00432486 0.00394405 0.0110616)
(0.00676919 0.00753213 0.00948959)
(0.00719951 0.0107754 0.00719951)
(0.00552646 0.0111405 0.00605194)
(0.00418177 0.00417805 0.00452923)
(0.00201364 -0.000700538 0.000840914)
(0.000760979 -0.000796253 -0.00157641)
(-0.000850444 -0.000760562 -0.00250003)
(-0.00319516 -0.0012663 -0.00151522)
(-0.00439934 -0.00160682 -3.41279e-05)
(-0.00591212 -0.000311113 0.00139913)
(-0.00586495 0.00472204 0.00238825)
(-0.00705398 0.0099598 0.00343571)
(-0.00897838 0.010796 0.00314972)
(-0.0117501 0.00908963 0.00336577)
(-0.0140963 0.00517517 0.00495451)
(-0.0142048 -0.00118396 0.00754143)
(-0.0110768 -0.00919606 0.00934737)
(-0.00483366 -0.018604 0.00812514)
(0.00216519 -0.00155888 0.00401447)
(0.0040566 6.67229e-05 0.0075784)
(0.00596756 0.00466259 0.00838272)
(0.00734822 0.00998476 0.00734822)
(0.00729254 0.0111923 0.00650551)
(0.00663482 0.00565822 0.00519118)
(0.00465179 0.00150532 0.0029739)
(0.00203151 0.000225423 0.000223928)
(0.000113688 0.000523241 -0.00208664)
(-0.0028348 -0.000660922 -0.001757)
(-0.00509975 -0.00178627 -0.000502602)
(-0.00680819 -0.00062387 0.000735806)
(-0.00724802 0.00433369 0.00179337)
(-0.0070883 0.0104808 0.00271632)
(-0.0071886 0.0124709 0.00274406)
(-0.00833641 0.0104463 0.00298852)
(-0.0094084 0.00470062 0.00449614)
(-0.00895585 -0.00391522 0.00665042)
(-0.0072769 -0.0138117 0.00734766)
(-0.00246775 -0.0247211 0.003628)
(0.00305489 -0.00781763 -0.00142938)
(0.00549477 -0.0020109 0.00378156)
(0.00636297 0.00232967 0.00716511)
(0.00770107 0.00782183 0.00770107)
(0.00845404 0.00989604 0.0073107)
(0.00815202 0.00678273 0.00642443)
(0.00645113 0.00383015 0.00498368)
(0.00385988 0.00257617 0.00282673)
(0.00178468 0.0022822 -0.000200782)
(-0.000872097 0.00106415 -0.00136887)
(-0.00396652 -0.000561636 -0.000503972)
(-0.00625781 -1.17224e-05 0.000674119)
(-0.00705918 0.00354028 0.00163627)
(-0.0064962 0.00924329 0.00254041)
(-0.00548619 0.0124543 0.00310842)
(-0.00518986 0.0116641 0.00397765)
(-0.00500091 0.0068229 0.0062323)
(-0.00457946 -0.00245112 0.00844706)
(-0.00491621 -0.0144592 0.00749959)
(-0.00106769 -0.0270309 0.00126295)
(0.0026215 -0.0143226 -0.00470259)
(0.00683582 -0.00462532 0.00104678)
(0.0070226 0.000175997 0.0055452)
(0.00758548 0.00554474 0.00758548)
(0.00835599 0.00841396 0.00798677)
(0.00818749 0.00724549 0.00753999)
(0.00677882 0.00551712 0.00648499)
(0.00461284 0.0045851 0.00469466)
(0.00266808 0.00404289 0.00188173)
(0.000807086 0.00295686 -0.000134598)
(-0.0020151 0.00129408 0.000377565)
(-0.00431814 0.00106853 0.0015604)
(-0.00556787 0.00306163 0.00229878)
(-0.00519395 0.00746427 0.00298609)
(-0.00369397 0.0112547 0.0038773)
(-0.00238381 0.0116695 0.00538243)
(-0.00141633 0.00788437 0.00827296)
(-0.000861709 -0.00116417 0.0102902)
(-0.00323192 -0.01405 0.0076418)
(5.95265e-05 -0.0280455 -0.000468073)
(0.000915953 -0.0190916 -0.00690972)
(0.0067872 -0.0061057 -0.000570717)
(0.00650253 -0.000283766 0.00395889)
(0.0066173 0.00476388 0.0066173)
(0.00700989 0.00779394 0.00770293)
(0.00688831 0.00774416 0.00763915)
(0.00588781 0.00690169 0.00694537)
(0.00440965 0.00633493 0.00564684)
(0.00298222 0.00578452 0.00351772)
(0.00173034 0.0049475 0.0015622)
(-0.000114732 0.0038318 0.00159476)
(-0.00197214 0.00334735 0.00269558)
(-0.0032489 0.00392073 0.0032418)
(-0.00327829 0.00638993 0.00361107)
(-0.00188918 0.00972553 0.00448633)
(-9.18373e-05 0.0108602 0.00626998)
(0.000922885 0.00792106 0.00905107)
(0.00164238 0.000315255 0.0103792)
(-0.00194962 -0.0129519 0.00675966)
(0.00116336 -0.0282844 -0.00219347)
(-0.00116937 -0.022346 -0.00883683)
(0.00552534 -0.00751476 -0.00214059)
(0.0048512 -0.000770985 0.00233648)
(0.00477994 0.00430861 0.00477994)
(0.00497203 0.00713235 0.00610733)
(0.00511125 0.00743854 0.00635937)
(0.00473225 0.00695201 0.00612136)
(0.00403932 0.00652707 0.00548532)
(0.00322966 0.00601032 0.00426555)
(0.00236972 0.00537845 0.00293413)
(0.00121634 0.00456092 0.00268433)
(-8.99405e-05 0.00391657 0.00342195)
(-0.00119402 0.00387328 0.00378167)
(-0.00143195 0.00512724 0.00381241)
(-0.000270415 0.00778622 0.00440346)
(0.00160799 0.00917074 0.00592822)
(0.00251926 0.00691898 0.00801913)
(0.00294686 0.000367499 0.00858342)
(-0.000555337 -0.0116382 0.00444573)
(0.00253545 -0.0274219 -0.00420812)
(-0.00356366 -0.0226964 -0.0111238)
(0.00205553 -0.00847044 -0.00495157)
(0.00102895 0.00128124 -0.00020151)
(0.00205465 0.0057334 0.00205465)
(0.00247871 0.00750703 0.00317699)
(0.00316512 0.00777718 0.0034638)
(0.00350791 0.00778089 0.00355517)
(0.00360332 0.00793086 0.00358585)
(0.0034835 0.00804139 0.0033992)
(0.00295415 0.00805112 0.00305851)
(0.00208242 0.00756595 0.00284111)
(0.00133204 0.00692205 0.00296693)
(0.000820646 0.00629276 0.00293491)
(0.000676372 0.00614906 0.00274818)
(0.00149352 0.00723591 0.00305798)
(0.00308927 0.00822969 0.00408758)
(0.00397306 0.00690591 0.00542566)
(0.00455633 0.00161642 0.00513018)
(0.00189068 -0.0103425 0.000502432)
(0.00447237 -0.024874 -0.00686689)
(-0.00698079 -0.0187202 -0.0143626)
(-0.00468985 -0.00949676 -0.0098717)
(-0.00593568 -0.0030549 -0.00610327)
(-0.00390142 0.000613153 -0.00390142)
(-0.00264137 0.00172727 -0.0033133)
(-0.000931084 0.00133195 -0.00322687)
(0.000438945 0.000815861 -0.00319324)
(0.00158179 0.000626336 -0.00299017)
(0.00258758 0.000839319 -0.00263989)
(0.00300521 0.00147594 -0.00214285)
(0.00321664 0.000997991 -0.0022482)
(0.0035707 -0.000205643 -0.00250803)
(0.00394844 -0.000660235 -0.00273948)
(0.00423942 -0.000559571 -0.00285266)
(0.00492634 0.000404797 -0.00245101)
(0.00649643 0.00169508 -0.00156052)
(0.0077816 0.00131065 -0.00061794)
(0.00917282 -0.00264725 -0.00207925)
(0.00686107 -0.00972122 -0.00581374)
(0.00770683 -0.0195798 -0.0106756)
(-0.0136623 -0.0098945 -0.0197394)
(-0.0190436 -0.0032733 -0.0204964)
(-0.0238352 -0.000108352 -0.0222509)
(-0.0240351 0.00154485 -0.0240351)
(-0.0230403 0.00266078 -0.0262669)
(-0.0212639 0.00370045 -0.0290097)
(-0.0185685 0.00496877 -0.0318006)
(-0.0145764 0.00653139 -0.0342634)
(-0.00902342 0.00843957 -0.0358907)
(-0.00141203 0.0107337 -0.035752)
(0.0085242 0.00951586 -0.0352241)
(0.014334 0.007737 -0.0345946)
(0.0189539 0.00619757 -0.0327004)
(0.0219602 0.00483019 -0.0301518)
(0.0237524 0.0036117 -0.027239)
(0.0248685 0.00259796 -0.0241547)
(0.0255042 0.00154262 -0.0214356)
(0.0250866 -0.000137472 -0.019395)
(0.0199672 -0.00340651 -0.0174649)
(0.0141704 -0.0101599 -0.0164001)
(0.00433584 0.00241986 0.010715)
(0.00660976 0.00394203 0.0102944)
(0.00793332 0.00583319 0.00726149)
(0.00619359 0.0069654 0.00334538)
(0.00190306 0.00593879 0.00190306)
(-0.000993013 -0.00287076 0.0022635)
(0.00246628 -0.00189146 0.000747031)
(0.000766789 -0.000343385 0.00184643)
(-6.44132e-05 -0.000843245 0.00136652)
(-0.00141271 -0.00162558 0.00191791)
(-0.00198346 -0.002484 0.0020839)
(-0.000492721 -0.00243888 0.00249098)
(-0.00177341 0.00349437 0.00222795)
(-0.00574228 0.00576381 0.000657826)
(-0.009635 0.00562219 0.00100691)
(-0.0141138 0.00410289 0.00411416)
(-0.0171162 0.00141443 0.00829831)
(-0.0175315 -0.00152472 0.012823)
(-0.0139662 -0.00475188 0.0160203)
(-0.00809925 -0.00909031 0.0164731)