/*--------------------------------*- C++ -*----------------------------------*\
  =========                 |
  \\      /  F ield         | OpenFOAM: The Open Source CFD Toolbox
   \\    /   O peration     | Website:  https://openfoam.org
    \\  /    A nd           | Version:  8
     \\/     M anipulation  |
\*---------------------------------------------------------------------------*/
FoamFile
{
    version     2.0;
    format      ascii;
    class       volScalarField;
    location    "400";
    object      epsilon;
}
// * * * * * * * * * * * * * * * * * * * * * * * * * * * * * * * * * * * * * //

dimensions      [0 2 -3 0 0 0 0];

internalField   nonuniform List<scalar> 
4000
(
4.94671e-07
4.73512e-07
3.97498e-07
3.1335e-07
2.46165e-07
3.13523e-07
4.1381e-07
4.65922e-07
4.87237e-07
4.88705e-07
4.70051e-07
4.28842e-07
3.81838e-07
3.45478e-07
3.1756e-07
2.9585e-07
2.81801e-07
2.77876e-07
2.86273e-07
3.0617e-07
5.81319e-07
5.94745e-07
4.57784e-07
3.25042e-07
2.66672e-07
3.40765e-07
4.50397e-07
5.30163e-07
5.98572e-07
6.5461e-07
6.82098e-07
6.39134e-07
5.43222e-07
4.66468e-07
4.18488e-07
3.83293e-07
3.58618e-07
3.48287e-07
3.56214e-07
3.7022e-07
6.60279e-07
7.31581e-07
5.80037e-07
3.99488e-07
3.25257e-07
3.57957e-07
4.37988e-07
5.03091e-07
5.70516e-07
7.16151e-07
8.70811e-07
9.07211e-07
7.75743e-07
6.15094e-07
5.24116e-07
4.68018e-07
4.30903e-07
4.138e-07
4.18763e-07
4.09314e-07
7.46764e-07
8.57657e-07
7.40563e-07
5.69238e-07
4.40146e-07
4.2694e-07
4.67127e-07
5.15684e-07
6.00527e-07
7.99715e-07
1.05037e-06
1.22697e-06
1.16043e-06
8.91705e-07
6.89448e-07
5.76021e-07
5.10631e-07
4.77915e-07
4.74341e-07
4.37531e-07
8.59144e-07
1.00802e-06
9.59073e-07
8.46107e-07
7.67806e-07
7.15568e-07
7.20503e-07
8.19271e-07
1.0254e-06
1.25966e-06
1.48857e-06
1.64718e-06
1.64428e-06
1.42693e-06
1.10047e-06
8.30369e-07
6.64228e-07
5.73325e-07
5.34969e-07
4.69606e-07
1.00974e-06
1.22836e-06
1.29941e-06
1.32296e-06
1.39667e-06
1.5061e-06
1.6037e-06
1.73758e-06
1.91862e-06
2.09806e-06
2.23372e-06
2.29518e-06
2.24802e-06
2.05819e-06
1.73623e-06
1.35647e-06
1.01928e-06
7.81578e-07
6.41307e-07
5.18483e-07
1.20384e-06
1.54659e-06
1.80022e-06
2.03291e-06
2.29102e-06
2.55426e-06
2.72964e-06
2.85787e-06
2.98879e-06
3.07619e-06
3.09938e-06
3.05684e-06
2.94199e-06
2.73531e-06
2.42258e-06
2.01831e-06
1.56929e-06
1.15466e-06
8.38521e-07
5.95485e-07
1.44443e-06
1.95651e-06
2.42272e-06
2.87049e-06
3.31095e-06
3.70141e-06
3.98515e-06
4.09896e-06
4.13729e-06
4.10722e-06
4.01616e-06
3.87677e-06
3.68697e-06
3.42847e-06
3.08308e-06
2.66543e-06
2.16724e-06
1.62921e-06
1.12531e-06
7.0667e-07
1.73364e-06
2.45509e-06
3.13981e-06
3.76781e-06
4.3208e-06
4.75542e-06
5.07983e-06
5.15682e-06
5.07679e-06
4.94356e-06
4.77084e-06
4.57108e-06
4.34184e-06
4.06467e-06
3.71079e-06
3.25943e-06
2.71347e-06
2.09829e-06
1.45506e-06
8.48379e-07
2.06524e-06
2.92481e-06
3.6355e-06
4.17271e-06
4.58269e-06
4.88721e-06
5.10665e-06
5.22694e-06
5.17072e-06
5.05412e-06
4.89134e-06
4.69495e-06
4.47066e-06
4.21523e-06
3.91575e-06
3.55128e-06
3.09453e-06
2.5157e-06
1.79912e-06
1.0164e-06
4.73512e-07
5.22929e-07
4.11845e-07
3.1776e-07
2.64252e-07
3.59446e-07
5.32466e-07
6.20842e-07
6.59427e-07
6.6525e-07
6.48508e-07
5.92964e-07
5.24159e-07
4.67467e-07
4.22603e-07
3.84321e-07
3.50921e-07
3.24326e-07
3.06048e-07
2.7944e-07
5.94745e-07
7.24477e-07
4.84354e-07
3.29883e-07
2.92458e-07
4.10349e-07
6.03595e-07
6.66453e-07
6.80259e-07
7.08002e-07
7.30329e-07
6.83943e-07
5.7671e-07
4.77396e-07
4.14404e-07
3.79482e-07
3.65774e-07
3.7467e-07
4.08151e-07
3.6887e-07
7.31581e-07
1.08565e-06
8.07173e-07
4.90034e-07
3.77314e-07
4.29484e-07
5.70835e-07
6.74578e-07
7.47477e-07
8.60696e-07
9.78793e-07
9.939e-07
8.63145e-07
6.92966e-07
5.7116e-07
5.00506e-07
4.72681e-07
4.89635e-07
5.53537e-07
4.66894e-07
8.57657e-07
1.22622e-06
1.04788e-06
7.36969e-07
5.35471e-07
5.08765e-07
5.76279e-07
6.56436e-07
7.50556e-07
9.22597e-07
1.18191e-06
1.31533e-06
1.20718e-06
9.7351e-07
7.79191e-07
6.53055e-07
5.83749e-07
5.7383e-07
6.33991e-07
5.52896e-07
1.00802e-06
1.25925e-06
1.20253e-06
1.01332e-06
8.04372e-07
7.24536e-07
7.36925e-07
8.03023e-07
9.12087e-07
1.07146e-06
1.31635e-06
1.55931e-06
1.57947e-06
1.35603e-06
1.08598e-06
8.75288e-07
7.31829e-07
6.55588e-07
6.69699e-07
6.23032e-07
1.22836e-06
1.3392e-06
1.34642e-06
1.30161e-06
1.26512e-06
1.21316e-06
1.22265e-06
1.27664e-06
1.3599e-06
1.46238e-06
1.5987e-06
1.75601e-06
1.84652e-06
1.75634e-06
1.51938e-06
1.23451e-06
9.78438e-07
7.96708e-07
7.18557e-07
6.93909e-07
1.54659e-06
1.57454e-06
1.61308e-06
1.66239e-06
1.75208e-06
1.8204e-06
1.80181e-06
1.81857e-06
1.86885e-06
1.91013e-06
1.92991e-06
1.96537e-06
2.02007e-06
2.0273e-06
1.9108e-06
1.66705e-06
1.35235e-06
1.06192e-06
8.57578e-07
7.78491e-07
1.95651e-06
2.04141e-06
2.16891e-06
2.25846e-06
2.36669e-06
2.45686e-06
2.45557e-06
2.42857e-06
2.42048e-06
2.38692e-06
2.34775e-06
2.32868e-06
2.33298e-06
2.33716e-06
2.27878e-06
2.12106e-06
1.83407e-06
1.4845e-06
1.14087e-06
8.95243e-07
2.45509e-06
2.87047e-06
3.2726e-06
3.50151e-06
3.64448e-06
3.7159e-06
3.71104e-06
3.54514e-06
3.49176e-06
3.44646e-06
3.38676e-06
3.32703e-06
3.26976e-06
3.20325e-06
3.0952e-06
2.89506e-06
2.5683e-06
2.14186e-06
1.61422e-06
1.07036e-06
2.92481e-06
3.91429e-06
4.76462e-06
5.44156e-06
5.99032e-06
6.4196e-06
6.74447e-06
6.91496e-06
6.82888e-06
6.60964e-06
6.31575e-06
5.98507e-06
5.63434e-06
5.25983e-06
4.84251e-06
4.35554e-06
3.77412e-06
3.0761e-06
2.2343e-06
1.29317e-06
3.97498e-07
4.11845e-07
3.49809e-07
2.95758e-07
2.76632e-07
3.88031e-07
6.2633e-07
7.48825e-07
7.9594e-07
7.90464e-07
7.46918e-07
6.81087e-07
6.08075e-07
5.50342e-07
5.00764e-07
4.52079e-07
4.0339e-07
3.57509e-07
3.15409e-07
2.70872e-07
4.57784e-07
4.84354e-07
3.61526e-07
3.00317e-07
3.03729e-07
4.42005e-07
7.13784e-07
7.99563e-07
7.84333e-07
7.68637e-07
7.58198e-07
7.11128e-07
6.22836e-07
5.38333e-07
4.81881e-07
4.47344e-07
4.25392e-07
4.10109e-07
3.9281e-07
3.3565e-07
5.80037e-07
8.07173e-07
5.97944e-07
4.29219e-07
3.90863e-07
4.81253e-07
6.87015e-07
8.383e-07
8.83975e-07
9.27291e-07
9.79147e-07
9.70415e-07
8.71131e-07
7.35366e-07
6.23189e-07
5.51193e-07
5.1257e-07
4.98813e-07
4.95421e-07
3.9774e-07
7.40563e-07
1.04788e-06
9.05066e-07
6.60032e-07
5.48902e-07
5.69997e-07
6.84758e-07
8.09566e-07
9.16103e-07
1.07685e-06
1.21289e-06
1.22245e-06
1.11607e-06
9.52758e-07
7.99874e-07
6.88226e-07
6.23912e-07
6.05413e-07
6.15172e-07
4.79607e-07
9.59073e-07
1.20253e-06
1.13876e-06
9.32153e-07
7.80754e-07
7.46148e-07
7.89767e-07
8.65294e-07
9.6115e-07
1.12075e-06
1.35692e-06
1.49803e-06
1.37219e-06
1.1753e-06
9.97952e-07
8.57394e-07
7.61506e-07
7.14937e-07
7.08633e-07
5.85852e-07
1.29941e-06
1.34642e-06
1.28206e-06
1.15657e-06
1.05021e-06
1.01366e-06
1.03007e-06
1.06906e-06
1.125e-06
1.21754e-06
1.37243e-06
1.56768e-06
1.62434e-06
1.44287e-06
1.23664e-06
1.06776e-06
9.29755e-07
8.34376e-07
7.81341e-07
7.07564e-07
1.80022e-06
1.61308e-06
1.47393e-06
1.33099e-06
1.28383e-06
1.31397e-06
1.34972e-06
1.37368e-06
1.38792e-06
1.40651e-06
1.45686e-06
1.55835e-06
1.67143e-06
1.68609e-06
1.56073e-06
1.38636e-06
1.20701e-06
1.05164e-06
9.22323e-07
8.57912e-07
2.42272e-06
2.16891e-06
2.04953e-06
1.87869e-06
1.84887e-06
1.95175e-06
2.00139e-06
1.99478e-06
1.96294e-06
1.91356e-06
1.88299e-06
1.90268e-06
1.9689e-06
2.04255e-06
2.0668e-06
1.98515e-06
1.78741e-06
1.53501e-06
1.25947e-06
1.06264e-06
3.13981e-06
3.2726e-06
3.55215e-06
3.61514e-06
3.64711e-06
3.6659e-06
3.66687e-06
3.55701e-06
3.47774e-06
3.40676e-06
3.35756e-06
3.35453e-06
3.39401e-06
3.45025e-06
3.47076e-06
3.35684e-06
3.031e-06
2.53362e-06
1.92127e-06
1.3391e-06
3.6355e-06
4.76462e-06
5.73335e-06
6.52203e-06
7.19267e-06
7.7418e-06
8.1763e-06
8.42897e-06
8.35211e-06
8.03237e-06
7.61045e-06
7.15852e-06
6.70263e-06
6.2328e-06
5.72319e-06
5.13825e-06
4.45227e-06
3.65815e-06
2.72229e-06
1.63573e-06
3.1335e-07
3.1776e-07
2.95758e-07
2.79823e-07
2.89487e-07
4.01106e-07
6.94792e-07
8.55309e-07
9.19797e-07
9.2282e-07
8.88747e-07
8.38314e-07
7.91134e-07
7.52585e-07
7.09942e-07
6.47521e-07
5.69766e-07
4.85505e-07
4.04195e-07
3.34924e-07
3.25042e-07
3.29883e-07
3.00317e-07
2.90254e-07
3.1835e-07
4.63568e-07
7.91783e-07
9.1434e-07
8.87889e-07
8.4804e-07
8.27606e-07
7.95118e-07
7.39085e-07
6.80151e-07
6.32255e-07
5.93666e-07
5.55334e-07
5.18862e-07
4.7619e-07
3.98735e-07
3.99488e-07
4.90034e-07
4.29219e-07
3.88398e-07
4.11105e-07
5.33524e-07
7.99008e-07
9.79455e-07
9.92754e-07
9.78272e-07
9.84497e-07
9.6985e-07
9.00609e-07
7.98782e-07
7.04316e-07
6.34101e-07
5.84973e-07
5.49224e-07
5.10145e-07
4.15322e-07
5.69238e-07
7.36969e-07
6.60032e-07
5.72356e-07
5.63192e-07
6.46473e-07
8.23243e-07
9.93332e-07
1.09206e-06
1.14819e-06
1.1736e-06
1.14593e-06
1.06439e-06
9.45112e-07
8.20053e-07
7.18545e-07
6.50632e-07
6.14667e-07
5.82165e-07
4.52506e-07
8.46107e-07
1.01332e-06
9.32153e-07
8.15914e-07
7.74735e-07
8.27906e-07
9.39549e-07
1.05402e-06
1.15003e-06
1.25276e-06
1.37195e-06
1.36537e-06
1.2266e-06
1.0808e-06
9.49229e-07
8.3773e-07
7.62351e-07
7.20366e-07
6.88071e-07
5.43202e-07
1.32296e-06
1.30161e-06
1.15657e-06
1.02963e-06
9.96684e-07
1.05876e-06
1.15183e-06
1.21813e-06
1.26415e-06
1.32051e-06
1.42609e-06
1.53576e-06
1.4633e-06
1.25854e-06
1.09887e-06
9.81159e-07
8.99863e-07
8.42831e-07
7.93296e-07
6.82215e-07
2.03291e-06
1.66239e-06
1.33099e-06
1.19835e-06
1.24371e-06
1.3688e-06
1.49232e-06
1.53397e-06
1.50996e-06
1.49026e-06
1.52322e-06
1.61545e-06
1.68534e-06
1.61099e-06
1.4167e-06
1.24046e-06
1.14414e-06
1.06926e-06
9.73851e-07
8.80048e-07
2.87049e-06
2.25846e-06
1.87869e-06
1.7693e-06
1.93592e-06
2.11041e-06
2.20968e-06
2.21837e-06
2.16902e-06
2.08907e-06
2.0591e-06
2.11601e-06
2.22984e-06
2.30074e-06
2.24327e-06
2.04947e-06
1.84577e-06
1.65172e-06
1.39582e-06
1.17927e-06
3.76781e-06
3.50151e-06
3.61514e-06
3.66276e-06
3.78388e-06
3.87457e-06
3.93282e-06
3.8834e-06
3.84613e-06
3.78936e-06
3.77086e-06
3.82784e-06
3.93959e-06
4.04259e-06
4.06832e-06
3.97245e-06
3.60505e-06
2.99023e-06
2.24454e-06
1.59509e-06
4.17271e-06
5.44156e-06
6.52203e-06
7.43817e-06
8.20203e-06
8.83302e-06
9.3734e-06
9.77429e-06
9.80223e-06
9.38731e-06
8.82823e-06
8.25564e-06
7.70705e-06
7.16259e-06
6.57157e-06
5.87323e-06
5.06884e-06
4.17744e-06
3.15493e-06
1.95291e-06
2.46165e-07
2.64252e-07
2.76632e-07
2.89487e-07
3.14982e-07
4.25927e-07
7.4587e-07
9.54306e-07
1.0457e-06
1.07533e-06
1.07718e-06
1.07075e-06
1.06494e-06
1.02973e-06
9.56962e-07
8.66178e-07
7.63571e-07
6.52872e-07
5.3827e-07
4.27002e-07
2.66672e-07
2.92458e-07
3.03729e-07
3.1835e-07
3.58174e-07
5.16828e-07
8.90154e-07
1.05312e-06
1.02457e-06
9.75956e-07
9.64833e-07
9.5968e-07
9.32426e-07
8.82654e-07
8.21511e-07
7.46247e-07
6.75009e-07
6.10489e-07
5.44229e-07
4.72252e-07
3.25257e-07
3.77314e-07
3.90863e-07
4.11105e-07
4.72358e-07
6.49556e-07
9.95289e-07
1.18767e-06
1.16042e-06
1.08491e-06
1.0506e-06
1.03029e-06
9.80898e-07
9.00023e-07
8.1196e-07
7.31943e-07
6.66063e-07
6.08301e-07
5.45179e-07
4.59127e-07
4.40146e-07
5.35471e-07
5.48902e-07
5.63192e-07
6.39886e-07
8.31295e-07
1.1278e-06
1.33557e-06
1.34205e-06
1.25582e-06
1.18266e-06
1.1266e-06
1.05872e-06
9.63628e-07
8.56853e-07
7.62291e-07
6.89709e-07
6.35172e-07
5.79878e-07
4.6709e-07
7.67806e-07
8.04372e-07
7.80754e-07
7.74735e-07
8.62579e-07
1.08252e-06
1.35939e-06
1.53371e-06
1.53616e-06
1.43413e-06
1.35017e-06
1.25861e-06
1.14449e-06
1.03445e-06
9.26627e-07
8.29639e-07
7.58052e-07
7.16683e-07
6.71724e-07
5.42192e-07
1.39667e-06
1.26512e-06
1.05021e-06
9.96684e-07
1.10929e-06
1.38555e-06
1.68836e-06
1.818e-06
1.76376e-06
1.59695e-06
1.49001e-06
1.43837e-06
1.31657e-06
1.15662e-06
1.03037e-06
9.33703e-07
8.68979e-07
8.33436e-07
7.96917e-07
6.89148e-07
2.29102e-06
1.75208e-06
1.28383e-06
1.24371e-06
1.43366e-06
1.77876e-06
2.09842e-06
2.23101e-06
2.11353e-06
1.83986e-06
1.68601e-06
1.66802e-06
1.66336e-06
1.54438e-06
1.3462e-06
1.18374e-06
1.10308e-06
1.07697e-06
1.02026e-06
9.3327e-07
3.31095e-06
2.36669e-06
1.84887e-06
1.93592e-06
2.16892e-06
2.46101e-06
2.72907e-06
2.84405e-06
2.76381e-06
2.49514e-06
2.32545e-06
2.34176e-06
2.444e-06
2.4923e-06
2.39198e-06
2.15195e-06
1.90203e-06
1.75243e-06
1.52422e-06
1.32089e-06
4.3208e-06
3.64448e-06
3.64711e-06
3.78388e-06
3.96902e-06
4.13245e-06
4.32799e-06
4.42348e-06
4.41978e-06
4.25767e-06
4.17489e-06
4.25101e-06
4.41274e-06
4.54826e-06
4.55819e-06
4.39826e-06
4.0156e-06
3.35233e-06
2.53129e-06
1.87485e-06
4.58269e-06
5.99032e-06
7.19267e-06
8.20203e-06
9.04243e-06
9.80277e-06
1.05467e-05
1.12086e-05
1.14393e-05
1.08386e-05
1.00295e-05
9.25203e-06
8.55358e-06
7.9032e-06
7.23664e-06
6.47842e-06
5.56617e-06
4.59971e-06
3.5162e-06
2.25086e-06
3.13523e-07
3.59446e-07
3.88031e-07
4.01106e-07
4.25927e-07
5.22668e-07
8.27899e-07
1.08096e-06
1.21726e-06
1.29226e-06
1.34535e-06
1.38213e-06
1.35746e-06
1.27571e-06
1.17143e-06
1.05814e-06
9.36484e-07
8.0289e-07
6.54148e-07
4.91647e-07
3.40765e-07
4.10349e-07
4.42005e-07
4.63568e-07
5.16828e-07
7.11246e-07
1.13645e-06
1.35075e-06
1.30731e-06
1.22301e-06
1.20064e-06
1.19658e-06
1.15631e-06
1.06942e-06
9.47946e-07
8.32438e-07
7.34917e-07
6.52747e-07
5.75385e-07
5.16011e-07
3.57957e-07
4.29484e-07
4.81253e-07
5.33524e-07
6.49556e-07
9.71957e-07
1.48261e-06
1.74146e-06
1.63772e-06
1.39994e-06
1.24509e-06
1.16938e-06
1.10278e-06
1.00985e-06
9.00145e-07
7.95361e-07
7.04079e-07
6.27495e-07
5.54186e-07
4.82371e-07
4.2694e-07
5.08765e-07
5.69997e-07
6.46473e-07
8.31295e-07
1.27715e-06
1.89264e-06
2.20918e-06
2.07627e-06
1.67379e-06
1.36209e-06
1.19974e-06
1.10157e-06
1.0028e-06
8.95655e-07
7.96655e-07
7.14856e-07
6.48291e-07
5.81412e-07
4.88436e-07
7.15568e-07
7.24536e-07
7.46148e-07
8.27906e-07
1.08252e-06
1.65392e-06
2.36572e-06
2.75268e-06
2.55658e-06
1.97685e-06
1.51157e-06
1.26703e-06
1.128e-06
1.02207e-06
9.21072e-07
8.29502e-07
7.59078e-07
7.12847e-07
6.64644e-07
5.68048e-07
1.5061e-06
1.21316e-06
1.01366e-06
1.05876e-06
1.38555e-06
2.07039e-06
2.79845e-06
3.26107e-06
3.05335e-06
2.27015e-06
1.67286e-06
1.39859e-06
1.23889e-06
1.10586e-06
9.9604e-07
9.0606e-07
8.43411e-07
8.20341e-07
8.04667e-07
7.32497e-07
2.55426e-06
1.8204e-06
1.31397e-06
1.3688e-06
1.77876e-06
2.44522e-06
3.08954e-06
3.54157e-06
3.4708e-06
2.61344e-06
1.92926e-06
1.67874e-06
1.59332e-06
1.47523e-06
1.311e-06
1.16009e-06
1.06761e-06
1.07503e-06
1.06496e-06
1.02534e-06
3.70141e-06
2.45686e-06
1.95175e-06
2.11041e-06
2.46101e-06
2.99111e-06
3.54382e-06
3.91419e-06
3.93326e-06
3.25196e-06
2.62587e-06
2.44474e-06
2.48247e-06
2.5147e-06
2.41722e-06
2.18865e-06
1.92191e-06
1.80273e-06
1.62315e-06
1.49232e-06
4.75542e-06
3.7159e-06
3.6659e-06
3.87457e-06
4.13245e-06
4.49926e-06
4.97133e-06
5.30409e-06
5.38077e-06
4.90177e-06
4.4979e-06
4.44574e-06
4.5846e-06
4.72261e-06
4.72045e-06
4.52019e-06
4.16797e-06
3.5278e-06
2.7189e-06
2.14067e-06
4.88721e-06
6.4196e-06
7.7418e-06
8.83302e-06
9.80277e-06
1.08037e-05
1.18745e-05
1.28868e-05
1.3483e-05
1.25711e-05
1.13108e-05
1.018e-05
9.23607e-06
8.42233e-06
7.65432e-06
6.83961e-06
5.89543e-06
4.87709e-06
3.76753e-06
2.49152e-06
4.1381e-07
5.32466e-07
6.2633e-07
6.94792e-07
7.4587e-07
8.27899e-07
9.90467e-07
1.29026e-06
1.51196e-06
1.64518e-06
1.71926e-06
1.72856e-06
1.63151e-06
1.49404e-06
1.35904e-06
1.23104e-06
1.0976e-06
9.44806e-07
7.60893e-07
5.3127e-07
4.50397e-07
6.03595e-07
7.13784e-07
7.91783e-07
8.90154e-07
1.13645e-06
1.67102e-06
2.18269e-06
2.17176e-06
1.86882e-06
1.63358e-06
1.47835e-06
1.32601e-06
1.14219e-06
9.75329e-07
8.43469e-07
7.44176e-07
6.66855e-07
5.98701e-07
5.43124e-07
4.37988e-07
5.70835e-07
6.87015e-07
7.99008e-07
9.95289e-07
1.48261e-06
2.38287e-06
3.18223e-06
3.24801e-06
2.46716e-06
1.76669e-06
1.41568e-06
1.23818e-06
1.08476e-06
9.36613e-07
8.0746e-07
7.0661e-07
6.30741e-07
5.64932e-07
5.11535e-07
4.67127e-07
5.76279e-07
6.84758e-07
8.23243e-07
1.1278e-06
1.89264e-06
3.04201e-06
4.06148e-06
4.35087e-06
3.18429e-06
2.00698e-06
1.43712e-06
1.19901e-06
1.05203e-06
9.24682e-07
8.13565e-07
7.24137e-07
6.53856e-07
5.88206e-07
5.25192e-07
7.20503e-07
7.36925e-07
7.89767e-07
9.39549e-07
1.35939e-06
2.36572e-06
3.57047e-06
4.65205e-06
5.16526e-06
3.84148e-06
2.25148e-06
1.4934e-06
1.19409e-06
1.04256e-06
9.28969e-07
8.34409e-07
7.62296e-07
7.12081e-07
6.69982e-07
6.16224e-07
1.6037e-06
1.22265e-06
1.03007e-06
1.15183e-06
1.68836e-06
2.79845e-06
3.90559e-06
4.89184e-06
5.54223e-06
4.30111e-06
2.4509e-06
1.58826e-06
1.26224e-06
1.10035e-06
9.85818e-07
8.94371e-07
8.30896e-07
8.13192e-07
8.2038e-07
8.04523e-07
2.72964e-06
1.80181e-06
1.34972e-06
1.49232e-06
2.09842e-06
3.08954e-06
4.06732e-06
4.88021e-06
5.51648e-06
4.55724e-06
2.67239e-06
1.82292e-06
1.55951e-06
1.42515e-06
1.28457e-06
1.14576e-06
1.04735e-06
1.06786e-06
1.10269e-06
1.1377e-06
3.98515e-06
2.45557e-06
2.00139e-06
2.20968e-06
2.72907e-06
3.54382e-06
4.42814e-06
5.07902e-06
5.59761e-06
4.82172e-06
3.24569e-06
2.54677e-06
2.40288e-06
2.39235e-06
2.31425e-06
2.13138e-06
1.89811e-06
1.7881e-06
1.67211e-06
1.65296e-06
5.07983e-06
3.71104e-06
3.66687e-06
3.93282e-06
4.32799e-06
4.97133e-06
5.80325e-06
6.44012e-06
6.82772e-06
6.056e-06
4.94424e-06
4.4985e-06
4.47271e-06
4.53675e-06
4.49718e-06
4.29708e-06
3.98077e-06
3.45873e-06
2.76319e-06
2.32926e-06
5.10665e-06
6.74447e-06
8.1763e-06
9.3734e-06
1.05467e-05
1.18745e-05
1.33426e-05
1.4715e-05
1.59153e-05
1.47426e-05
1.27854e-05
1.11063e-05
9.79866e-06
8.75001e-06
7.83811e-06
6.95397e-06
6.00258e-06
4.97289e-06
3.87882e-06
2.6375e-06
4.65922e-07
6.20842e-07
7.48825e-07
8.55309e-07
9.54306e-07
1.08096e-06
1.29026e-06
1.53026e-06
1.85237e-06
2.06103e-06
2.127e-06
2.05964e-06
1.89576e-06
1.69783e-06
1.53929e-06
1.40647e-06
1.26829e-06
1.09579e-06
8.63331e-07
5.56125e-07
5.30163e-07
6.66453e-07
7.99563e-07
9.1434e-07
1.05312e-06
1.35075e-06
2.18269e-06
3.13721e-06
3.77774e-06
3.31348e-06
2.30742e-06
1.66838e-06
1.34607e-06
1.11753e-06
9.52779e-07
8.42055e-07
7.67304e-07
7.10289e-07
6.51473e-07
5.81246e-07
5.03091e-07
6.74578e-07
8.383e-07
9.79455e-07
1.18767e-06
1.74146e-06
3.18223e-06
4.16348e-06
4.98235e-06
4.60814e-06
2.91009e-06
1.81568e-06
1.37537e-06
1.12534e-06
9.40773e-07
8.0766e-07
7.18186e-07
6.56533e-07
6.03785e-07
5.69139e-07
5.15684e-07
6.56436e-07
8.09566e-07
9.93332e-07
1.33557e-06
2.20918e-06
4.06148e-06
4.81197e-06
5.66459e-06
5.67925e-06
3.5287e-06
1.95697e-06
1.38124e-06
1.12974e-06
9.65046e-07
8.39321e-07
7.44131e-07
6.75844e-07
6.20107e-07
5.91457e-07
8.19271e-07
8.03023e-07
8.65294e-07
1.05402e-06
1.53371e-06
2.75268e-06
4.65205e-06
5.15305e-06
5.97602e-06
6.36514e-06
3.97222e-06
2.06904e-06
1.38058e-06
1.11634e-06
9.68289e-07
8.63066e-07
7.86399e-07
7.33429e-07
7.00612e-07
6.90396e-07
1.73758e-06
1.27664e-06
1.06906e-06
1.21813e-06
1.818e-06
3.26107e-06
4.89184e-06
5.23924e-06
6.001e-06
6.62296e-06
4.16018e-06
2.14252e-06
1.4215e-06
1.15484e-06
1.01102e-06
9.09845e-07
8.42113e-07
8.25732e-07
8.51056e-07
8.95075e-07
2.85787e-06
1.81857e-06
1.37368e-06
1.53397e-06
2.23101e-06
3.54157e-06
4.88021e-06
5.20486e-06
5.87543e-06
6.53161e-06
4.16545e-06
2.26805e-06
1.6358e-06
1.41829e-06
1.27525e-06
1.14337e-06
1.04205e-06
1.06213e-06
1.13006e-06
1.24129e-06
4.09896e-06
2.42857e-06
1.99478e-06
2.21837e-06
2.84405e-06
3.91419e-06
5.07902e-06
5.53756e-06
6.10374e-06
6.53906e-06
4.30751e-06
2.80305e-06
2.33248e-06
2.22605e-06
2.14889e-06
2.00666e-06
1.81642e-06
1.71148e-06
1.66059e-06
1.75169e-06
5.15682e-06
3.54514e-06
3.55701e-06
3.8834e-06
4.42348e-06
5.30409e-06
6.44012e-06
7.2283e-06
7.78484e-06
7.49915e-06
5.61519e-06
4.58177e-06
4.25248e-06
4.16436e-06
4.06821e-06
3.86746e-06
3.58245e-06
3.17881e-06
2.64908e-06
2.37463e-06
5.22694e-06
6.91496e-06
8.42897e-06
9.77429e-06
1.12086e-05
1.28868e-05
1.4715e-05
1.62817e-05
1.78804e-05
1.70734e-05
1.43686e-05
1.20082e-05
1.02536e-05
8.92215e-06
7.83586e-06
6.86077e-06
5.8904e-06
4.86056e-06
3.79856e-06
2.61748e-06
4.87237e-07
6.59427e-07
7.9594e-07
9.19797e-07
1.0457e-06
1.21726e-06
1.51196e-06
1.85237e-06
2.20091e-06
2.38767e-06
2.423e-06
2.35599e-06
2.12203e-06
1.88337e-06
1.70956e-06
1.57043e-06
1.42359e-06
1.23072e-06
9.57077e-07
5.78421e-07
5.98572e-07
6.80259e-07
7.84333e-07
8.87889e-07
1.02457e-06
1.30731e-06
2.17176e-06
3.77774e-06
3.5331e-06
3.44876e-06
2.57973e-06
1.63592e-06
1.2943e-06
1.09655e-06
9.63362e-07
8.80636e-07
8.27581e-07
7.85808e-07
7.34607e-07
6.3974e-07
5.70516e-07
7.47477e-07
8.83975e-07
9.92754e-07
1.16042e-06
1.63772e-06
3.24801e-06
4.98235e-06
3.97048e-06
4.12202e-06
3.58971e-06
2.0928e-06
1.41669e-06
1.12471e-06
9.48795e-07
8.37362e-07
7.67552e-07
7.19102e-07
6.78156e-07
6.56317e-07
6.00527e-07
7.50556e-07
9.16103e-07
1.09206e-06
1.34205e-06
2.07627e-06
4.35087e-06
5.66459e-06
4.20309e-06
4.81429e-06
4.61304e-06
2.5183e-06
1.61267e-06
1.25425e-06
1.04521e-06
9.03784e-07
8.08246e-07
7.40636e-07
6.93222e-07
6.91765e-07
1.0254e-06
9.12087e-07
9.6115e-07
1.15003e-06
1.53616e-06
2.55658e-06
5.16526e-06
5.97602e-06
4.4202e-06
5.47248e-06
5.26334e-06
2.73308e-06
1.66312e-06
1.272e-06
1.07871e-06
9.52993e-07
8.63341e-07
8.01621e-07
7.72906e-07
7.93478e-07
1.91862e-06
1.3599e-06
1.125e-06
1.26415e-06
1.76376e-06
3.05335e-06
5.54223e-06
6.001e-06
4.62349e-06
5.93528e-06
5.42893e-06
2.77505e-06
1.68119e-06
1.28943e-06
1.10222e-06
9.83765e-07
9.05034e-07
8.78378e-07
9.08621e-07
9.97347e-07
2.98879e-06
1.86885e-06
1.38792e-06
1.50996e-06
2.11353e-06
3.4708e-06
5.51648e-06
5.87543e-06
4.82343e-06
6.13784e-06
5.20136e-06
2.75746e-06
1.80484e-06
1.48073e-06
1.31107e-06
1.17444e-06
1.06478e-06
1.07196e-06
1.15425e-06
1.32684e-06
4.13729e-06
2.42048e-06
1.96294e-06
2.16902e-06
2.76381e-06
3.93326e-06
5.59761e-06
6.10374e-06
5.40998e-06
6.48266e-06
4.98682e-06
3.04908e-06
2.3358e-06
2.12614e-06
2.01571e-06
1.87959e-06
1.71096e-06
1.60754e-06
1.60882e-06
1.79741e-06
5.07679e-06
3.49176e-06
3.47774e-06
3.84613e-06
4.41978e-06
5.38077e-06
6.82772e-06
7.78484e-06
7.50322e-06
7.82401e-06
5.94166e-06
4.57865e-06
4.04456e-06
3.83765e-06
3.67117e-06
3.4418e-06
3.15771e-06
2.82777e-06
2.45174e-06
2.33129e-06
5.17072e-06
6.82888e-06
8.35211e-06
9.80223e-06
1.14393e-05
1.3483e-05
1.59153e-05
1.78804e-05
1.84028e-05
1.82503e-05
1.52324e-05
1.23844e-05
1.0273e-05
8.71133e-06
7.49423e-06
6.46773e-06
5.51314e-06
4.54641e-06
3.57775e-06
2.51072e-06
4.88705e-07
6.6525e-07
7.90464e-07
9.2282e-07
1.07533e-06
1.29226e-06
1.64518e-06
2.06103e-06
2.38767e-06
2.63044e-06
2.56113e-06
2.45352e-06
2.20927e-06
1.98374e-06
1.82284e-06
1.69089e-06
1.54383e-06
1.33963e-06
1.03621e-06
5.9588e-07
6.5461e-07
7.08002e-07
7.68637e-07
8.4804e-07
9.75956e-07
1.22301e-06
1.86882e-06
3.31348e-06
3.44876e-06
2.84431e-06
2.30927e-06
1.50436e-06
1.2486e-06
1.10157e-06
1.00312e-06
9.44944e-07
9.10354e-07
8.8318e-07
8.40439e-07
7.06439e-07
7.16151e-07
8.60696e-07
9.27291e-07
9.78272e-07
1.08491e-06
1.39994e-06
2.46716e-06
4.60814e-06
4.12202e-06
3.14653e-06
3.0703e-06
1.85813e-06
1.30091e-06
1.09891e-06
9.7663e-07
9.00461e-07
8.54398e-07
8.22835e-07
7.95582e-07
7.60604e-07
7.99715e-07
9.22597e-07
1.07685e-06
1.14819e-06
1.25582e-06
1.67379e-06
3.18429e-06
5.67925e-06
4.81429e-06
3.9113e-06
3.98642e-06
2.31516e-06
1.59737e-06
1.29642e-06
1.11554e-06
9.96069e-07
9.16219e-07
8.58337e-07
8.22109e-07
8.20619e-07
1.25966e-06
1.07146e-06
1.12075e-06
1.25276e-06
1.43413e-06
1.97685e-06
3.84148e-06
6.36514e-06
5.47248e-06
4.79157e-06
4.57351e-06
2.64091e-06
1.8237e-06
1.47479e-06
1.26564e-06
1.11769e-06
1.01146e-06
9.33785e-07
8.99953e-07
9.20099e-07
2.09806e-06
1.46238e-06
1.21754e-06
1.32051e-06
1.59695e-06
2.27015e-06
4.30111e-06
6.62296e-06
5.93528e-06
5.43631e-06
4.72455e-06
2.73771e-06
1.86587e-06
1.49183e-06
1.28956e-06
1.15408e-06
1.05299e-06
9.95487e-07
1.00991e-06
1.10485e-06
3.07619e-06
1.91013e-06
1.40651e-06
1.49026e-06
1.83986e-06
2.61344e-06
4.55724e-06
6.53161e-06
6.13784e-06
5.72016e-06
4.5416e-06
2.70645e-06
1.92784e-06
1.60455e-06
1.41729e-06
1.27008e-06
1.14554e-06
1.11946e-06
1.1938e-06
1.39887e-06
4.10722e-06
2.38692e-06
1.91356e-06
2.08907e-06
2.49514e-06
3.25196e-06
4.82172e-06
6.53906e-06
6.48266e-06
6.04391e-06
4.43451e-06
2.94308e-06
2.36061e-06
2.12962e-06
1.97465e-06
1.80982e-06
1.62931e-06
1.51544e-06
1.55054e-06
1.81461e-06
4.94356e-06
3.44646e-06
3.40676e-06
3.78936e-06
4.25767e-06
4.90177e-06
6.056e-06
7.49915e-06
7.82401e-06
7.24389e-06
5.51513e-06
4.45103e-06
4.01132e-06
3.76977e-06
3.52857e-06
3.22924e-06
2.89265e-06
2.56423e-06
2.27205e-06
2.26909e-06
5.05412e-06
6.60964e-06
8.03237e-06
9.38731e-06
1.08386e-05
1.25711e-05
1.47426e-05
1.70734e-05
1.82503e-05
1.70444e-05
1.41082e-05
1.15895e-05
9.7045e-06
8.26386e-06
7.10773e-06
6.11882e-06
5.20433e-06
4.29899e-06
3.40124e-06
2.41993e-06
4.70051e-07
6.48508e-07
7.46918e-07
8.88747e-07
1.07718e-06
1.34535e-06
1.71926e-06
2.127e-06
2.423e-06
2.56113e-06
2.47536e-06
2.37366e-06
2.15917e-06
1.97667e-06
1.84402e-06
1.72538e-06
1.58133e-06
1.37281e-06
1.05634e-06
5.80172e-07
6.82098e-07
7.30329e-07
7.58198e-07
8.27606e-07
9.64833e-07
1.20064e-06
1.63358e-06
2.30742e-06
2.57973e-06
2.30927e-06
1.70059e-06
1.32987e-06
1.21068e-06
1.10894e-06
1.03951e-06
1.00058e-06
9.825e-07
9.7291e-07
9.42162e-07
7.3951e-07
8.70811e-07
9.78793e-07
9.79147e-07
9.84497e-07
1.0506e-06
1.24509e-06
1.76669e-06
2.91009e-06
3.58971e-06
3.0703e-06
1.93434e-06
1.36555e-06
1.16106e-06
1.05749e-06
9.91156e-07
9.54833e-07
9.41455e-07
9.39783e-07
9.33694e-07
8.27065e-07
1.05037e-06
1.18191e-06
1.21289e-06
1.1736e-06
1.18266e-06
1.36209e-06
2.00698e-06
3.5287e-06
4.61304e-06
3.98642e-06
2.44707e-06
1.66107e-06
1.3381e-06
1.19104e-06
1.09605e-06
1.03197e-06
9.90648e-07
9.63996e-07
9.56726e-07
9.1424e-07
1.48857e-06
1.31635e-06
1.35692e-06
1.37195e-06
1.35017e-06
1.51157e-06
2.25148e-06
3.97222e-06
5.26334e-06
4.57351e-06
2.91083e-06
2.0118e-06
1.64822e-06
1.46002e-06
1.32373e-06
1.21793e-06
1.13401e-06
1.06494e-06
1.03929e-06
1.02362e-06
2.23372e-06
1.5987e-06
1.37243e-06
1.42609e-06
1.49001e-06
1.67286e-06
2.4509e-06
4.16018e-06
5.42893e-06
4.72455e-06
3.12484e-06
2.21872e-06
1.85285e-06
1.66095e-06
1.51737e-06
1.38508e-06
1.26083e-06
1.15827e-06
1.13506e-06
1.18504e-06
3.09938e-06
1.92991e-06
1.45686e-06
1.52322e-06
1.68601e-06
1.92926e-06
2.67239e-06
4.16545e-06
5.20136e-06
4.5416e-06
3.11598e-06
2.29578e-06
1.94679e-06
1.74281e-06
1.5852e-06
1.44456e-06
1.3058e-06
1.22094e-06
1.25223e-06
1.43685e-06
4.01616e-06
2.34775e-06
1.88299e-06
2.0591e-06
2.32545e-06
2.62587e-06
3.24569e-06
4.30751e-06
4.98682e-06
4.43451e-06
3.2865e-06
2.6363e-06
2.36138e-06
2.18422e-06
2.00904e-06
1.81314e-06
1.60363e-06
1.46175e-06
1.50082e-06
1.78316e-06
4.77084e-06
3.38676e-06
3.35756e-06
3.77086e-06
4.17489e-06
4.4979e-06
4.94424e-06
5.61519e-06
5.94166e-06
5.51513e-06
4.69158e-06
4.24102e-06
4.00786e-06
3.7781e-06
3.48358e-06
3.12104e-06
2.72771e-06
2.36866e-06
2.10652e-06
2.16583e-06
4.89134e-06
6.31575e-06
7.61045e-06
8.82823e-06
1.00295e-05
1.13108e-05
1.27854e-05
1.43686e-05
1.52324e-05
1.41082e-05
1.21161e-05
1.03344e-05
8.88149e-06
7.68333e-06
6.66498e-06
5.75718e-06
4.89738e-06
4.04377e-06
3.20693e-06
2.30527e-06
4.28842e-07
5.92964e-07
6.81087e-07
8.38314e-07
1.07075e-06
1.38213e-06
1.72856e-06
2.05964e-06
2.35599e-06
2.45352e-06
2.37366e-06
2.19959e-06
1.99972e-06
1.83773e-06
1.70934e-06
1.5755e-06
1.39947e-06
1.15735e-06
8.44287e-07
4.65141e-07
6.39134e-07
6.83943e-07
7.11128e-07
7.95118e-07
9.5968e-07
1.19658e-06
1.47835e-06
1.66838e-06
1.63592e-06
1.50436e-06
1.32987e-06
1.24172e-06
1.16876e-06
1.09371e-06
1.03676e-06
1.00045e-06
9.80842e-07
9.68178e-07
9.25154e-07
6.61965e-07
9.07211e-07
9.939e-07
9.70415e-07
9.6985e-07
1.03029e-06
1.16938e-06
1.41568e-06
1.81568e-06
2.0928e-06
1.85813e-06
1.36555e-06
1.15647e-06
1.06576e-06
1.00846e-06
9.75301e-07
9.66339e-07
9.7951e-07
1.00486e-06
1.0082e-06
7.72567e-07
1.22697e-06
1.31533e-06
1.22245e-06
1.14593e-06
1.1266e-06
1.19974e-06
1.43712e-06
1.95697e-06
2.5183e-06
2.31516e-06
1.66107e-06
1.28844e-06
1.12439e-06
1.04346e-06
9.98552e-07
9.75596e-07
9.70501e-07
9.79611e-07
9.97922e-07
8.59145e-07
1.64718e-06
1.55931e-06
1.49803e-06
1.36537e-06
1.25861e-06
1.26703e-06
1.4934e-06
2.06904e-06
2.73308e-06
2.64091e-06
2.0118e-06
1.56078e-06
1.31654e-06
1.19526e-06
1.1205e-06
1.06319e-06
1.01966e-06
9.9529e-07
1.01766e-06
9.72441e-07
2.29518e-06
1.75601e-06
1.56768e-06
1.53576e-06
1.43837e-06
1.39859e-06
1.58826e-06
2.14252e-06
2.77505e-06
2.73771e-06
2.21872e-06
1.8287e-06
1.60607e-06
1.47886e-06
1.37316e-06
1.26356e-06
1.16238e-06
1.08968e-06
1.10071e-06
1.12964e-06
3.05684e-06
1.96537e-06
1.55835e-06
1.61545e-06
1.66802e-06
1.67874e-06
1.82292e-06
2.26805e-06
2.75746e-06
2.70645e-06
2.29578e-06
2.01093e-06
1.8615e-06
1.76285e-06
1.66287e-06
1.53399e-06
1.36404e-06
1.23513e-06
1.22845e-06
1.35462e-06
3.87677e-06
2.32868e-06
1.90268e-06
2.11601e-06
2.34176e-06
2.44474e-06
2.54677e-06
2.80305e-06
3.04908e-06
2.94308e-06
2.6363e-06
2.44878e-06
2.34078e-06
2.21858e-06
2.05409e-06
1.84935e-06
1.61689e-06
1.44558e-06
1.44005e-06
1.66125e-06
4.57108e-06
3.32703e-06
3.35453e-06
3.82784e-06
4.25101e-06
4.44574e-06
4.4985e-06
4.58177e-06
4.57865e-06
4.45103e-06
4.24102e-06
4.11078e-06
3.97677e-06
3.75953e-06
3.44858e-06
3.06155e-06
2.64444e-06
2.25519e-06
1.97093e-06
2.00542e-06
4.69495e-06
5.98507e-06
7.15852e-06
8.25564e-06
9.25203e-06
1.018e-05
1.11063e-05
1.20082e-05
1.23844e-05
1.15895e-05
1.03344e-05
9.10671e-06
8.01286e-06
7.04918e-06
6.18505e-06
5.37629e-06
4.57998e-06
3.77664e-06
2.99071e-06
2.15776e-06
3.81838e-07
5.24159e-07
6.08075e-07
7.91134e-07
1.06494e-06
1.35746e-06
1.63151e-06
1.89576e-06
2.12203e-06
2.20927e-06
2.15917e-06
1.99972e-06
1.78772e-06
1.58782e-06
1.41125e-06
1.22081e-06
9.96283e-07
7.55085e-07
5.4029e-07
3.78609e-07
5.43222e-07
5.7671e-07
6.22836e-07
7.39085e-07
9.32426e-07
1.15631e-06
1.32601e-06
1.34607e-06
1.2943e-06
1.2486e-06
1.21068e-06
1.16876e-06
1.11211e-06
1.04367e-06
9.76757e-07
9.13823e-07
8.50989e-07
7.78788e-07
6.80313e-07
5.11803e-07
7.75743e-07
8.63145e-07
8.71131e-07
9.00609e-07
9.80898e-07
1.10278e-06
1.23818e-06
1.37537e-06
1.41669e-06
1.30091e-06
1.16106e-06
1.06576e-06
1.00749e-06
9.68368e-07
9.43379e-07
9.32686e-07
9.33238e-07
9.30463e-07
8.79912e-07
6.35387e-07
1.16043e-06
1.20718e-06
1.11607e-06