/*--------------------------------*- C++ -*----------------------------------*\
  =========                 |
  \\      /  F ield         | OpenFOAM: The Open Source CFD Toolbox
   \\    /   O peration     | Website:  https://openfoam.org
    \\  /    A nd           | Version:  8
     \\/     M anipulation  |
\*---------------------------------------------------------------------------*/
FoamFile
{
    version     2.0;
    format      ascii;
    class       volScalarField;
    location    "400";
    object      k;
}
// * * * * * * * * * * * * * * * * * * * * * * * * * * * * * * * * * * * * * //

dimensions      [0 2 -2 0 0 0 0];

internalField   nonuniform List<scalar> 
4000
(
4.6119e-05
4.47362e-05
3.97557e-05
3.38724e-05
2.86509e-05
3.32047e-05
4.00797e-05
4.34009e-05
4.47081e-05
4.47619e-05
4.36203e-05
4.10672e-05
3.80406e-05
3.55935e-05
3.36713e-05
3.21721e-05
3.12362e-05
3.10642e-05
3.18047e-05
3.33408e-05
5.16138e-05
5.22091e-05
4.37056e-05
3.45808e-05
3.00341e-05
3.50413e-05
4.23336e-05
4.72422e-05
5.12514e-05
5.44068e-05
5.5894e-05
5.35664e-05
4.81375e-05
4.34915e-05
4.04608e-05
3.82041e-05
3.66405e-05
3.60705e-05
3.67618e-05
3.78234e-05
5.64638e-05
6.00808e-05
5.12567e-05
3.96659e-05
3.42625e-05
3.62895e-05
4.15325e-05
4.56197e-05
4.95734e-05
5.76471e-05
6.57919e-05
6.77787e-05
6.12804e-05
5.25241e-05
4.71579e-05
4.37374e-05
4.14684e-05
4.04909e-05
4.09581e-05
4.04865e-05
6.15502e-05
6.70415e-05
6.05657e-05
5.041e-05
4.20231e-05
4.09102e-05
4.33745e-05
4.63733e-05
5.11997e-05
6.20426e-05
7.45146e-05
8.29033e-05
8.04373e-05
6.78566e-05
5.71852e-05
5.06522e-05
4.67255e-05
4.47541e-05
4.46108e-05
4.24607e-05
6.77561e-05
7.49571e-05
7.23916e-05
6.62494e-05
6.17384e-05
5.85079e-05
5.84087e-05
6.34125e-05
7.36954e-05
8.46079e-05
9.45738e-05
0.000101239
0.00010143
9.29535e-05
7.88311e-05
6.55688e-05
5.6453e-05
5.10825e-05
4.87136e-05
4.47569e-05
7.54822e-05
8.56365e-05
8.8835e-05
8.97261e-05
9.25671e-05
9.67874e-05
0.000100448
0.000105618
0.000112603
0.000119362
0.000124358
0.000126626
0.000125068
0.000118406
0.000106481
9.11288e-05
7.58267e-05
6.36401e-05
5.56293e-05
4.81583e-05
8.46885e-05
9.95961e-05
0.000109963
0.0001189
0.000128183
0.00013709
0.000142786
0.00014685
0.000151077
0.000153899
0.000154645
0.000153276
0.000149577
0.000142846
0.000132351
0.000118032
0.000100718
8.27556e-05
6.70344e-05
5.31801e-05
9.52277e-05
0.000115882
0.000133128
0.000148515
0.00016271
0.00017466
0.000182979
0.000186173
0.000187208
0.000186284
0.000183568
0.000179396
0.000173667
0.000165756
0.000154905
0.000141247
0.000123951
0.000103423
8.14542e-05
5.98105e-05
0.000106972
0.000133977
0.000157168
0.000176831
0.000193131
0.000205418
0.000214334
0.000216364
0.000214127
0.00021044
0.00020561
0.00019995
0.000193365
0.000185288
0.00017476
0.000160862
0.000143123
0.000121481
9.60629e-05
6.74914e-05
0.000119513
0.000149585
0.000172234
0.000188351
0.000200185
0.00020876
0.000214852
0.000218179
0.000216704
0.000213524
0.000209001
0.00020346
0.000197037
0.000189608
0.000180742
0.000169696
0.000155364
0.000136142
0.000109869
7.58426e-05
4.47362e-05
4.7943e-05
4.08158e-05
3.41704e-05
2.99395e-05
3.63139e-05
4.73498e-05
5.24408e-05
5.4538e-05
5.48037e-05
5.38927e-05
5.08839e-05
4.69809e-05
4.35706e-05
4.07358e-05
3.82402e-05
3.60393e-05
3.43201e-05
3.32095e-05
3.13676e-05
5.22091e-05
7.96516e-05
6.21759e-05
4.68587e-05
4.23901e-05
5.23744e-05
7.03393e-05
7.85737e-05
8.2621e-05
8.68059e-05
8.93373e-05
8.69804e-05
7.98178e-05
7.17817e-05
6.51779e-05
6.00586e-05
5.61065e-05
5.33438e-05
5.10963e-05
3.7905e-05
6.00808e-05
0.000116251
0.000101926
7.22401e-05
5.94512e-05
6.29806e-05
7.6756e-05
8.90994e-05
9.64016e-05
0.000103347
0.000110455
0.00011229
0.000106447
9.76294e-05
8.90132e-05
8.15795e-05
7.598e-05
7.26439e-05
6.99945e-05
4.44258e-05
6.70415e-05
0.000127346
0.000126303
0.000103007
8.27428e-05
7.83551e-05
8.42968e-05
9.31488e-05
0.000101942
0.000112698
0.000125986
0.000132159
0.000126057
0.000115775
0.000107315
9.93547e-05
9.19946e-05
8.63898e-05
8.19257e-05
4.96824e-05
7.49571e-05
0.000122227
0.000132366
0.000124883
0.000109368
0.000101477
0.000101681
0.000106699
0.000114027
0.000123692
0.000138517
0.000151472
0.000148407
0.000133637
0.000121571
0.00011213
0.000102683
9.34828e-05
8.60769e-05
5.37941e-05
8.56365e-05
0.000117143
0.000130456
0.000136583
0.000139011
0.00013735
0.000138202
0.000141626
0.000146619
0.00015302
0.000162497
0.000172316
0.000173688
0.000160616
0.000142218
0.000126084
0.000111311
9.72592e-05
8.53129e-05
5.79304e-05
9.95961e-05
0.000123513
0.00013763
0.000152143
0.000168681
0.000181729
0.000185626
0.000189921
0.000196017
0.000201467
0.000203825
0.000204204
0.000201451
0.000191189
0.000172391
0.000149317
0.00012609
0.000105206
8.74006e-05
6.27834e-05
0.000115882
0.000144151
0.000165661
0.000188305
0.000214523
0.000238214
0.000249736
0.000253446
0.000253282
0.000248475
0.000241746
0.000235244
0.000228584
0.00021942
0.000204757
0.000180896
0.00015198
0.000123741
9.80946e-05
6.92243e-05
0.000133977
0.000175492
0.000212413
0.000244795
0.000271335
0.000290454
0.00030492
0.000303612
0.000295543
0.000285932
0.000276152
0.00026717
0.000258476
0.000248267
0.000233388
0.00021109
0.00018168
0.000150027
0.000116537
7.81288e-05
0.000149585
0.000180808
0.000205635
0.000224332
0.000238927
0.00025006
0.000258358
0.000262749
0.000260751
0.000255278
0.000247766
0.000239139
0.000229806
0.000219644
0.000208073
0.0001942
0.000176979
0.000155092
0.000126176
8.84265e-05
3.97557e-05
4.08158e-05
3.64726e-05
3.24073e-05
3.07287e-05
3.81656e-05
5.27115e-05
5.93395e-05
6.17118e-05
6.1348e-05
5.90675e-05
5.56453e-05
5.16991e-05
4.8368e-05
4.53893e-05
4.23976e-05
3.93312e-05
3.63457e-05
3.35122e-05
3.03524e-05
4.37056e-05
6.21759e-05
5.33741e-05
4.78329e-05
4.77823e-05
5.93506e-05
8.49389e-05
9.81471e-05
0.000102686
0.000105312
0.000106566
0.000103165
9.48216e-05
8.51033e-05
7.72649e-05
7.13774e-05
6.61305e-05
6.01258e-05
5.15605e-05
3.51083e-05
5.12567e-05
0.000101926
9.05561e-05
7.41966e-05
6.9125e-05
7.61517e-05
9.68782e-05
0.000117597
0.000126324
0.000130424
0.000134352
0.0001352
0.000130281
0.000120542
0.000108791
9.785e-05
8.82095e-05
7.88153e-05
6.68152e-05
3.96172e-05
6.05657e-05
0.000126303
0.000130108
0.000110031
9.78694e-05
9.78119e-05
0.000108808
0.000124833
0.000138616
0.00015047
0.000156133
0.000154638
0.000149331
0.000142474
0.000133026
0.000121247
0.000109198
9.75497e-05
8.30985e-05
4.52809e-05
7.23916e-05
0.000132366
0.000150243
0.00014209
0.000129654
0.000125489
0.000129093
0.00013767
0.000148002
0.000160654
0.000175429
0.000178312
0.000164372
0.000152553
0.000145544
0.000136934
0.000125361
0.000111831
9.45394e-05
5.19696e-05
8.8835e-05
0.000130456
0.000151569
0.000157576
0.000155445
0.000155017
0.000157593
0.000161931
0.000167274
0.000174418
0.000185004
0.000195325
0.000190243
0.00016817
0.000152848
0.000143571
0.000132221
0.000117354
9.82381e-05
5.90288e-05
0.000109963
0.00013763
0.000154307
0.000164877
0.000175885
0.000187038
0.000194466
0.000198795
0.000201299
0.000203269
0.000206539
0.000211323
0.000212117
0.000200018
0.000177535
0.000157334
0.000139837
0.000121851
0.000100784
6.72118e-05
0.000133128
0.000165661
0.000189426
0.000208903
0.00023118
0.000249396
0.000258047
0.000260345
0.000259545
0.000255963
0.000252216
0.000250465
0.000249338
0.000244481
0.000229319
0.000203711
0.000173001
0.000142804
0.000113128
7.75686e-05
0.000157168
0.000212413
0.000265124
0.000304303
0.000327961
0.000338325
0.000343672
0.000339918
0.00033553
0.000330021
0.000324558
0.000320939
0.000318561
0.000314686
0.000302642
0.000276711
0.000235725
0.000187536
0.000139332
9.04853e-05
0.000172234
0.000205635
0.000232253
0.000252815
0.000269663
0.00028311
0.000293578
0.000299726
0.000298198
0.000290728
0.000280592
0.000269472
0.000257997
0.000245916
0.000232492
0.000216658
0.000197316
0.000173621
0.0001433
0.000102977
3.38724e-05
3.41704e-05
3.24073e-05
3.10403e-05
3.15715e-05
3.90013e-05
5.64083e-05
6.48026e-05
6.79314e-05
6.80104e-05
6.6318e-05
6.38293e-05
6.1429e-05
5.93651e-05
5.70594e-05
5.36343e-05
4.9233e-05
4.42489e-05
3.91795e-05
3.4609e-05
3.45808e-05
4.68587e-05
4.78329e-05
4.84411e-05
5.08777e-05
6.27924e-05
9.34276e-05
0.000111532
0.00011673
0.000117878
0.000117915
0.000114523
0.00010715
9.86018e-05
9.13756e-05
8.5485e-05
7.91734e-05
7.14183e-05
5.99732e-05
3.8925e-05
3.96659e-05
7.22401e-05
7.41966e-05
7.23588e-05
7.42272e-05
8.43124e-05
0.000111659
0.000138328
0.000147612
0.000149023
0.000150224
0.000150085
0.000145026
0.000134847
0.000122485
0.000110525
9.90258e-05
8.64903e-05
6.97445e-05
4.01685e-05
5.041e-05
0.000103007
0.000110031
0.000105564
0.000104535
0.000110604
0.000128505
0.000152281
0.00016932
0.000174757
0.000173621
0.000169985
0.00016549
0.00015834
0.000146857
0.000132661
0.000117736
0.000102315
8.16367e-05
4.30847e-05
6.62494e-05
0.000124883
0.00014209
0.000140589
0.000138894
0.000142935
0.000153414
0.000168724
0.000183375
0.000193602
0.000198314
0.000190485
0.000176725
0.000167767
0.000160184
0.000149258
0.000135235
0.000118013
9.44411e-05
4.9264e-05
8.97261e-05
0.000136583
0.000157576
0.000163722
0.000168259
0.00017612
0.000185118
0.000193886
0.000201823
0.000207958
0.000213783
0.000215219
0.000198978
0.000177123
0.000164941
0.000155922
0.000143619
0.000125955
0.000101261
5.77497e-05
0.0001189
0.000152143
0.000164877
0.000179123
0.000197062
0.000213689
0.00022564
0.000231674
0.000233073
0.000233021
0.000234425
0.000236962
0.000232841
0.000213751
0.000186936
0.000165992
0.000151085
0.000132866
0.000107461
6.86408e-05
0.000148515
0.000188305
0.000208903
0.000231846
0.000259765
0.000278426
0.000286828
0.000290194
0.000290523
0.000287004
0.00028443
0.000285454
0.000286936
0.000280069
0.000259796
0.000227995
0.000194172
0.00016184
0.000126211
8.34046e-05
0.000176831
0.000244795
0.000304303
0.000334284
0.00035384
0.000365094
0.000371215
0.000371271
0.000371331
0.000368455
0.000365796
0.000366084
0.000367682
0.00036571
0.000355588
0.000335015
0.000290524
0.000227377
0.000162275
0.000101634
0.000188351
0.000224332
0.000252815
0.000275757
0.000294191
0.000309042
0.000321567
0.000330864
0.000331904
0.000322693
0.00030989
0.000296429
0.000283213
0.000269794
0.000254882
0.000236755
0.000214942
0.000189373
0.000157656
0.000115512
2.86509e-05
2.99395e-05
3.07287e-05
3.15715e-05
3.332e-05
4.05866e-05
5.90554e-05
6.97018e-05
7.40307e-05
7.53911e-05
7.54894e-05
7.52169e-05
7.49421e-05
7.32766e-05
6.97677e-05
6.52779e-05
6.00228e-05
5.40942e-05
4.76018e-05
4.08478e-05
3.00341e-05
4.23901e-05
4.77823e-05
5.08777e-05
5.41512e-05
6.71973e-05
0.00010168
0.000124348
0.0001307
0.000131371
0.000131769
0.00013032
0.000125692
0.000119092
0.000111991
0.000103078
9.32578e-05
8.19902e-05
6.69908e-05
4.36262e-05
3.42625e-05
5.94512e-05
6.9125e-05
7.42272e-05
7.97951e-05
9.46573e-05
0.000130239
0.000160748
0.000169856
0.000168087
0.00016623
0.000164704
0.00015974
0.000150218
0.000138171
0.000125228
0.000111704
9.59248e-05
7.49217e-05
4.2783e-05
4.20231e-05
8.27428e-05
9.78694e-05
0.000104535
0.000112008
0.000127036
0.000156689
0.000188697
0.000201741
0.000198048
0.000190086
0.000183888
0.00017856
0.000170317
0.000157835
0.000142735
0.000126259
0.000107667
8.34695e-05
4.36883e-05
6.17384e-05
0.000109368
0.000129654
0.000138894
0.000149136
0.000165848
0.000190617
0.000216373
0.000229033
0.000224584
0.000213132
0.000199345
0.000187371
0.000178823
0.000169215
0.000156075
0.000140062
0.000121147
9.438e-05
4.89378e-05
9.25671e-05
0.000139011
0.000155445
0.000168259
0.000184688
0.000206646
0.000230296
0.000249388
0.00025612
0.000247488
0.000235334
0.000222315
0.000203627
0.000186071
0.00017423
0.000162861
0.000148364
0.000128911
0.000102165
5.80917e-05
0.000128183
0.000168681
0.000175885
0.000197062
0.000223236
0.000249828
0.000271694
0.000288368
0.00029046
0.000275362
0.00026221
0.000254704
0.000244217
0.000222653
0.000196682
0.000175432
0.00015775
0.000138562
0.000111663
7.14848e-05
0.00016271
0.000214523
0.00023118
0.000259765
0.000285851
0.000306003
0.000322397
0.000335679
0.0003399
0.000327745
0.000316536
0.000314286
0.000313806
0.000304668
0.00028205
0.000248076
0.000210796
0.000176856
0.000137206
9.0017e-05
0.000193131
0.000271335
0.000327961
0.00035384
0.000372837
0.000385047
0.000397742
0.000407793
0.000413277
0.000406443
0.000400372
0.000401358
0.000404952
0.000403849
0.000392399
0.000368734
0.000328703
0.000259287
0.000182711
0.000112968
0.000200185
0.000238927
0.000269663
0.000294191
0.000313898
0.000331296
0.000347992
0.000362651
0.000368144
0.000355391
0.000337604
0.000319984
0.0003037
0.000288136
0.000271778
0.000252622
0.000228591
0.000201664
0.000169099
0.000126524
3.32047e-05
3.63139e-05
3.81656e-05
3.90013e-05
4.05866e-05
4.64812e-05
6.32703e-05
7.57479e-05
8.19917e-05
8.53363e-05
8.76685e-05
8.92396e-05
8.81445e-05
8.45581e-05
7.98854e-05
7.46565e-05
6.88329e-05
6.21459e-05
5.42632e-05
4.49479e-05
3.50413e-05
5.23744e-05
5.93506e-05
6.27924e-05
6.71973e-05
8.18188e-05
0.00011757
0.000145571
0.000154458
0.000154666
0.000155284
0.00015511
0.000151371
0.000143614
0.000131357
0.00011798
0.000104434
8.993e-05
7.18098e-05
4.6332e-05
3.62895e-05
6.29806e-05
7.61517e-05
8.43124e-05
9.46573e-05
0.000119373
0.000164517
0.000202162
0.000211881
0.000202463
0.000192373
0.000185936
0.000179118
0.00016858
0.000154599
0.000138927
0.000121638
0.000102318
7.84118e-05
4.42823e-05
4.09102e-05
7.83551e-05
9.78119e-05
0.000110604
0.000127036
0.000159314
0.00021023
0.00025391
0.000264335
0.000243803
0.000219322
0.000203444
0.00019339
0.000182619
0.000168565
0.000152072
0.000133789
0.000112912
8.60037e-05
4.49959e-05
5.85079e-05
0.000101477
0.000125489
0.000142935
0.000165848
0.000204229
0.000256835
0.000303453
0.000312332
0.000280514
0.000242109
0.000215577
0.000199644
0.000188432
0.000176279
0.000161304
0.000143858
0.000123238
9.47752e-05
5.03845e-05
9.67874e-05
0.00013735
0.000155017
0.00017612
0.000206646
0.000250148
0.000298692
0.000345718
0.00035514
0.000312434
0.0002644
0.000232903
0.000210912
0.000194324
0.000180948
0.000166788
0.000149924
0.000129399
0.000102631
6.04407e-05
0.00013709
0.000181729
0.000187038
0.000213689
0.000249828
0.000289854
0.000329875
0.000371119
0.000387682
0.000344255
0.000293731
0.00026661
0.000248964
0.000228188
0.00020501
0.000182501
0.000160803
0.000141107
0.000115045
7.60433e-05
0.00017466
0.000238214
0.000249396
0.000278426
0.000306003
0.000336329
0.000369186
0.000400513
0.00041906
0.000388448
0.000347975
0.000330921
0.000324794
0.00031443
0.000292579
0.000259815
0.000221462
0.000186582
0.00014583
9.74466e-05
0.000205418
0.000290454
0.000338325
0.000365094
0.000385047
0.000406918
0.000434914
0.000459432
0.000474152
0.000452928
0.000428051
0.000420344
0.000421476
0.000419844
0.000407646
0.000382151
0.000345092
0.000278121
0.000197454
0.000123013
0.00020876
0.00025006
0.00028311
0.000309042
0.000331296
0.000353616
0.000376869
0.000398324
0.000411148
0.000392701
0.000366095
0.000341288
0.000319837
0.000300745
0.000282186
0.000261882
0.000237418
0.000209497
0.000176759
0.000134924
4.00797e-05
4.73498e-05
5.27115e-05
5.64083e-05
5.90554e-05
6.32703e-05
7.1295e-05
8.52601e-05
9.4803e-05
0.000100313
0.000103279
0.000103597
9.96592e-05
9.39823e-05
8.82494e-05
8.26315e-05
7.65573e-05
6.92891e-05
6.00422e-05
4.73898e-05
4.23336e-05
7.03393e-05
8.49389e-05
9.34276e-05
0.00010168
0.00011757
0.000145001
0.000186474
0.000207892
0.000204764
0.00019775
0.000190286
0.000179242
0.000161954
0.000143814
0.000127192
0.000111983
9.64636e-05
7.67177e-05
4.80376e-05
4.15325e-05
7.6756e-05
9.68782e-05
0.000111659
0.000130239
0.000164517
0.000212776
0.00027253
0.000308326
0.000283668
0.000245029
0.000219544
0.000203256
0.000186436
0.000167641
0.000147617
0.000127562
0.000106802
8.1705e-05
4.62026e-05
4.33745e-05
8.42968e-05
0.000108808
0.000128505
0.000156689
0.00021023
0.000272725
0.000342822
0.000393751
0.000354547
0.000283914
0.000237856
0.000213779
0.00019635
0.000178591
0.000159446
0.000139185
0.000116703
8.82508e-05
4.73445e-05
5.84087e-05
0.000101681
0.000129093
0.000153414
0.000190617
0.000256835
0.000322148
0.000393441
0.00045589
0.000412003
0.000314811
0.000250585
0.000218266
0.000199484
0.000183221
0.000165872
0.000146768
0.000124319
9.53833e-05
5.32445e-05
0.000100448
0.000138202
0.000157593
0.000185118
0.000230296
0.000298692
0.000358243
0.000422558
0.000489953
0.000451403
0.000338245
0.000263794
0.000225996
0.000203967
0.000186881
0.000169654
0.000150542
0.000129034
0.000103155
6.429e-05
0.000142786
0.000185626
0.000194466
0.00022564
0.000271694
0.000329875
0.000382818
0.000436001
0.000499027
0.000474213
0.000361204
0.000289876
0.000256595
0.000233594
0.000210856
0.000187016
0.000162524
0.000142068
0.000117867
8.13005e-05
0.000182979
0.000249736
0.000258047
0.000286828
0.000322397
0.000369186
0.000418108
0.000460439
0.000511646
0.000492516
0.000400248
0.000346603
0.000326221
0.00031241
0.000291898
0.000262152
0.000225852
0.000190639
0.000151384
0.000103957
0.000214334
0.00030492
0.000343672
0.000371215
0.000397742
0.000434914
0.000481322
0.000520018
0.000555128
0.00052672
0.000463114
0.000430482
0.000420516
0.000414134
0.000399864
0.000374374
0.00033962
0.000281514
0.000204134
0.000129688
0.000214852
0.000258358
0.000293578
0.000321567
0.000347992
0.000376869
0.00040774
0.000435731
0.0004597
0.00043729
0.000397725
0.000362043
0.000332971
0.000308702
0.000286818
0.000264834
0.000240206
0.000212072
0.000179982
0.000139763
4.34009e-05
5.24408e-05
5.93395e-05
6.48026e-05
6.97018e-05
7.57479e-05
8.52601e-05
9.54732e-05
0.000108645
0.000116622
0.000118998
0.000116424
0.000110122
0.000102347
9.59015e-05
9.03198e-05
8.43142e-05
7.65062e-05
6.53357e-05
4.89369e-05
4.72422e-05
7.85737e-05
9.81471e-05
0.000111532
0.000124348
0.000145571
0.000186474
0.000207548
0.000252056
0.000267024
0.000244335
0.000218865
0.00019265
0.000168792
0.000148494
0.000132193
0.000118022
0.000102992
8.28397e-05
5.0417e-05
4.56197e-05
8.90994e-05
0.000117597
0.000138328
0.000160748
0.000202162
0.00027253
0.000288067
0.000344645
0.000378794
0.00032734
0.000265483
0.000228121
0.000200004
0.000174386
0.000151277
0.000130804
0.000110546
8.59409e-05
4.98096e-05
4.63733e-05
9.31488e-05
0.000124833
0.000152281
0.000188697
0.00025391
0.000342822
0.00034938
0.000410296
0.000468592
0.000394135
0.00029389
0.000242058
0.000212453
0.000188372
0.00016557
0.000142828
0.000119293
9.09844e-05
5.13952e-05
6.34125e-05
0.000106699
0.00013767
0.000168724
0.000216373
0.000303453
0.000393441
0.000393553
0.00045541
0.000532248
0.00044016
0.000311901
0.000247274
0.000214928
0.000192222
0.000171447
0.000150017
0.000125915
9.70989e-05
5.75095e-05
0.000105618
0.000141626
0.000161931
0.000193886
0.000249388
0.000345718
0.000422558
0.000421906
0.000482356
0.000567613
0.000463532
0.000322753
0.000252596
0.000217985
0.000194698
0.000173722
0.000152209
0.000129644
0.000104672
6.89219e-05
0.00014685
0.000189921
0.000198795
0.000231674
0.000288368
0.000371119
0.000436001
0.000441349
0.000497468
0.000578608
0.000470638
0.000336422
0.000273616
0.000241692
0.000216346
0.000190733
0.000164235
0.000142808
0.000120379
8.58602e-05
0.000186173
0.000253446
0.000260345
0.000290194
0.000335679
0.000400513
0.000460439
0.000479758
0.00052864
0.0005892
0.000477908
0.000373096
0.00032798
0.000306233
0.000285122
0.000257654
0.000224049
0.000189557
0.000153364
0.000107637
0.000216364
0.000303612
0.000339918
0.000371271
0.000407793
0.000459432
0.000520018
0.000560849
0.000603259
0.000610271
0.000510949
0.000442667
0.000412988
0.000396705
0.00037871
0.000353046
0.000320193
0.000271786
0.000201876
0.00013097
0.000218179
0.000262749
0.000299726
0.000330864
0.000362651
0.000398324
0.000435731
0.000466944
0.000497262
0.000483011
0.000430537
0.000381838
0.000343537
0.000313008
0.000286971
0.000262592
0.000237229
0.000208806
0.000177355
0.000138821
4.47081e-05
5.4538e-05
6.17118e-05
6.79314e-05
7.40307e-05
8.19917e-05
9.4803e-05
0.000108645
0.000121772
0.000128704
0.000129921
0.000127372
0.000118809
0.000109735
0.000102885
9.72199e-05
9.10477e-05
8.26329e-05
6.99716e-05
5.03316e-05
5.12514e-05
8.2621e-05
0.000102686
0.00011673
0.0001307
0.000154458
0.000207892
0.000252056
0.000212197
0.000232147
0.000242886
0.000218698
0.000191411
0.000169615
0.000151826
0.000137874
0.00012534
0.000111063
9.04576e-05
5.39191e-05
4.95734e-05
9.64016e-05
0.000126324
0.000147612
0.000169856
0.000211881
0.000308326
0.000344645
0.000269915
0.000315973
0.000361955
0.00029403
0.000236955
0.000202057
0.000175387
0.000153676
0.000134728
0.000115393
9.1442e-05
5.498e-05
5.11997e-05
0.000101942
0.000138616
0.00016932
0.000201741
0.000264335
0.000393751
0.000410296
0.000319076
0.000398042
0.000460987
0.000345981
0.000269911
0.000228666
0.000197434
0.000170684
0.000146681
0.000122769
9.52943e-05
5.71802e-05
7.36954e-05
0.000114027
0.000148002
0.000183375
0.000229033
0.000312332
0.00045589
0.00045541
0.000365459
0.000472531
0.000523835
0.000372685
0.000281041
0.000235696
0.000206027
0.000180778
0.000156101
0.000130172
0.000101462
6.30943e-05
0.000112603
0.000146619
0.000167274
0.000201823
0.00025612
0.00035514
0.000489953
0.000482356
0.000407259
0.000528566
0.000548567
0.000381219
0.000284777
0.000237584
0.000207493
0.00018235
0.000157943
0.000133506
0.000108644
7.38717e-05
0.000151077
0.000196017
0.000201299
0.000233073
0.00029046
0.000387682
0.000499027
0.000497468
0.000444546
0.000561843
0.000542704
0.000382188
0.000296331
0.00025437
0.000224607
0.000196479
0.000167999
0.000144999
0.000123476
8.94076e-05
0.000187208
0.000253282
0.000259545
0.000290523
0.0003399
0.00041906
0.000511646
0.00052864
0.000499975
0.000594624
0.000528616
0.00039767
0.000334169
0.00030389
0.000279511
0.000251702
0.000219256
0.000185622
0.000152792
0.000109113
0.000214127
0.000295543
0.00033553
0.000371331
0.000413277
0.000474152
0.000555128
0.000603259
0.000600209
0.000637564
0.000538777
0.000449025
0.000404795
0.000380369
0.000357893
0.0003304
0.000297578
0.000255149
0.00019388
0.000129074
0.000216704
0.000260751
0.000298198
0.000331904
0.000368144
0.000411148
0.0004597
0.000497262
0.000506938
0.000505619
0.000448404
0.000390418
0.000344496
0.000308477
0.000278892
0.0002527
0.000227129
0.000199757
0.000170381
0.000134893
4.47619e-05
5.48037e-05
6.1348e-05
6.80104e-05
7.53911e-05
8.53363e-05
0.000100313
0.000116622
0.000128704
0.000137366
0.000134817
0.000130863
0.000122004
0.000113536
0.000107295
0.000102023
9.59845e-05
8.73229e-05
7.3708e-05
5.1404e-05
5.44068e-05
8.68059e-05
0.000105312
0.000117878
0.000131371
0.000154666
0.000204764
0.000267024
0.000232147
0.000200251
0.000216231
0.000208411
0.000188262
0.000170852
0.000156437
0.000144857
0.000133815
0.000120237
9.92429e-05
5.77409e-05
5.76471e-05
0.000103347
0.000130424
0.000149023
0.000168087
0.000202463
0.000283668
0.000378794
0.000315973
0.000272322
0.000330247
0.000276483
0.000224263
0.000197145
0.000175816
0.000157795
0.000141124
0.000123018
9.97463e-05
6.0828e-05
6.20426e-05
0.000112698
0.00015047
0.000174757
0.000198048
0.000243803
0.000354547
0.000468592
0.000398042
0.000367011
0.000430254
0.000331908
0.000266356
0.000228475
0.000199272
0.000174472
0.000151971
0.000129095
0.000103174
6.41354e-05
8.46079e-05
0.000123692
0.000160654
0.000193602
0.000224584
0.000280514
0.000412003
0.000532248
0.000472531
0.000459841
0.000493039
0.000368992
0.000295416
0.000253649
0.000221379
0.000192592
0.000165526
0.000138145
0.000109755
6.95124e-05
0.000119362
0.00015302
0.000174418
0.000207958
0.000247488
0.000312434
0.000451403
0.000567613
0.000528566
0.000527749
0.000517441
0.000382697
0.000303273
0.000258077
0.00022569
0.000197494
0.000169741
0.000142347
0.000116541
7.88014e-05
0.000153899
0.000201467
0.000203269
0.000233021
0.000275362
0.000344255
0.000474213
0.000578608
0.000561843
0.000563461
0.000512369
0.000382306
0.000309663
0.000268402
0.000236581
0.000206461
0.000176079
0.000150243
0.000128168
9.22843e-05
0.000186284
0.000248475
0.000255963
0.000287004
0.000327745
0.000388448
0.000492516
0.0005892
0.000594624
0.000590545
0.000502433
0.000393368
0.000338287
0.000306575
0.00027881
0.000248542
0.000215042
0.00018145
0.000151474
0.000109491
0.00021044
0.000285932
0.000330021
0.000368455
0.000406443
0.000452928
0.00052672
0.000610271
0.000637564
0.000618858
0.000518373
0.00044267
0.000403501
0.000377016
0.000350205
0.000318591
0.000282634
0.000241013
0.000185603
0.000126584
0.000213524
0.000255278
0.000290728
0.000322693
0.000355391
0.000392701
0.00043729
0.000483011
0.000505619
0.000483932
0.000426496
0.000373779
0.00033184
0.000297968
0.000269359
0.00024366
0.000218675
0.000192514
0.000164756
0.000131572
4.36203e-05
5.38927e-05
5.90675e-05
6.6318e-05
7.54894e-05
8.76685e-05
0.000103279
0.000118998
0.000129921
0.000134817
0.000131672
0.000127879
0.000119973
0.000113044
0.000107861
0.000103106
9.72112e-05
8.84556e-05
7.44427e-05
5.04515e-05
5.5894e-05
8.93373e-05
0.000106566
0.000117915
0.000131769
0.000155284
0.00019775
0.000244335
0.000242886
0.000216231
0.00020102
0.000195564
0.000184614
0.000171617
0.000160487
0.000151093
0.000141653
0.000129303
0.00010831
5.95279e-05
6.57919e-05
0.000110455
0.000134352
0.000150224
0.00016623
0.000192373
0.000245029
0.00032734
0.000361955
0.000330247
0.000271737
0.000231279
0.000207503
0.000190603
0.000175946
0.000162742
0.000149557
0.000133822
0.000111152
6.43723e-05
7.45146e-05
0.000125986
0.000156133
0.000173621
0.000190086
0.000219322
0.000283914
0.000394135
0.000460987
0.000430254
0.000337679
0.000272582
0.000235104
0.000211682
0.000191916
0.000173675
0.000155709
0.000136162
0.000112788
6.89843e-05
9.45738e-05
0.000138517
0.000175429
0.000198314
0.000213132
0.000242109
0.000314811
0.00044016
0.000523835
0.000493039
0.000388389
0.000312169
0.000270653
0.000242399
0.00021723
0.0001932
0.000169399
0.000144521
0.000118714
7.44888e-05
0.000124358
0.000162497
0.000185004
0.000213783
0.000235334
0.0002644
0.000338245
0.000463532
0.000548567
0.000517441
0.000413707
0.000336108
0.000294541
0.000266035
0.000239591
0.000211775
0.000182488
0.00015269
0.000125508
8.22929e-05
0.000154645
0.000203825
0.000206539
0.000234425
0.00026221
0.000293731
0.000361204
0.000470638
0.000542704
0.000512369
0.000416923
0.000345849
0.000306312
0.000276545
0.000248267
0.000219044
0.000187725
0.000157851
0.000133028
9.36533e-05
0.000183568
0.000241746
0.000252216
0.00028443
0.000316536
0.000347975
0.000400248
0.000477908
0.000528616
0.000502433
0.000423238
0.000366481
0.000334535
0.000308319
0.000280103
0.000248084
0.000212813
0.000178148
0.000149499
0.000108019
0.00020561
0.000276152
0.000324558
0.000365796
0.000400372
0.000428051
0.000463114
0.000510949
0.000538777
0.000518373
0.000462545
0.000424192
0.000399457
0.000375209
0.00034617
0.000311258
0.000272062
0.000229522
0.000176998
0.000122651
0.000209001
0.000247766
0.000280592
0.00030989
0.000337604
0.000366095
0.000397725
0.000430537
0.000448404
0.000426496
0.000385191
0.000346238
0.000312823
0.000283898
0.000258126
0.000234052
0.000210088
0.00018491
0.000158489
0.0001274
4.10672e-05
5.08839e-05
5.56453e-05
6.38293e-05
7.52169e-05
8.92396e-05
0.000103597
0.000116424
0.000127372
0.000130863
0.000127879
0.000121379
0.000113733
0.000107338
0.000102103
9.65109e-05
8.90246e-05
7.84211e-05
6.38016e-05
4.33413e-05
5.35664e-05
8.69804e-05
0.000103165
0.000114523
0.00013032
0.00015511
0.000190286
0.000218865
0.000218698
0.000208411
0.000195564
0.000188633
0.00018027
0.000170309
0.000160969
0.000152362
0.000143337
0.000131229
0.000109337
5.51013e-05
6.77787e-05
0.00011229
0.0001352
0.000150085
0.000164704
0.000185936
0.000219544
0.000265483
0.00029403
0.000276483
0.000231279
0.000208667
0.000196106
0.000185646
0.000176104
0.000167065
0.000157363
0.000144104
0.000120608
6.13966e-05
8.29033e-05
0.000132159
0.000154638
0.000169985
0.000183888
0.000203444
0.000237856
0.00029389
0.000345981
0.000331908
0.000272582
0.000231323
0.000209006
0.000194427
0.000182236
0.000170361
0.000157483
0.000141615
0.000119067
6.6182e-05
0.000101239
0.000151472
0.000178312
0.000190485
0.000199345
0.000215577
0.000250585
0.000311901
0.000372685
0.000368992
0.000312169
0.000262761
0.000230844
0.000210374
0.00019352
0.000176783
0.000159038
0.000139544
0.000117985
7.20815e-05
0.000126626
0.000172316
0.000195325
0.000215219
0.000222315
0.000232903
0.000263794
0.000322753
0.000381219
0.000382697
0.000336108
0.00029185
0.000260914
0.000238295
0.000216679
0.000193197
0.000168616
0.000144071
0.000121816
7.97508e-05
0.000153276
0.000204204
0.000211323
0.000236962
0.000254704
0.00026661
0.000289876
0.000336422
0.000382188
0.000382306
0.000345849
0.000312154
0.000288257
0.000267899
0.000245359
0.000218228
0.000185842
0.000154979
0.000129729
9.00593e-05
0.000179396
0.000235244
0.000250465
0.000285454
0.000314286
0.000330921
0.000346603
0.000373096
0.00039767
0.000393368
0.000366481
0.000343162
0.000324497
0.000303559
0.00027728
0.000245508
0.0002092
0.000173099
0.000143422
0.000103083
0.00019995
0.00026717
0.000320939
0.000366084
0.000401358
0.000420344
0.000430482
0.000442667
0.000449025
0.00044267
0.000424192
0.000407742
0.000391014
0.000369022
0.000340063
0.000304328
0.000263975
0.000219499
0.000167458
0.000116629
0.00020346
0.000239139
0.000269472
0.000296429
0.000319984
0.000341288
0.000362043
0.000381838
0.000390418
0.000373779
0.000346238
0.000318155
0.000292054
0.00026806
0.000245614
0.000223677
0.000201009
0.000176795
0.000151411
0.000122024
3.80406e-05
4.69809e-05
5.16991e-05
6.1429e-05
7.49421e-05
8.81445e-05
9.96592e-05
0.000110122
0.000118809
0.000122004
0.000119973
0.000113733
0.000105276
9.70311e-05
8.94799e-05
8.10569e-05
7.07704e-05
5.89539e-05
4.74446e-05
3.76178e-05
4.81375e-05
7.98178e-05
9.48216e-05
0.00010715
0.000125692
0.000151371
0.000179242
0.00019265
0.000191411
0.000188262
0.000184614
0.00018027
0.000173732
0.000164628
0.000154123
0.000142873
0.000130213
0.000114402
9.10949e-05
4.61035e-05
6.12804e-05
0.000106447
0.000130281
0.000145026
0.00015974
0.000179118
0.000203256
0.000228121
0.000236955
0.000224263
0.000207503
0.000196106
0.000188755
0.000182087
0.000174881
0.000166962
0.000157513
0.000143536
0.000117134
5.33757e-05
8.04373e-05
0.000126057
0.000149331
0.00016549
0.00017856