/*--------------------------------*- C++ -*----------------------------------*\
  =========                 |
  \\      /  F ield         | OpenFOAM: The Open Source CFD Toolbox
   \\    /   O peration     | Website:  https://openfoam.org
    \\  /    A nd           | Version:  8
     \\/     M anipulation  |
\*---------------------------------------------------------------------------*/
FoamFile
{
    version     2.0;
    format      ascii;
    class       surfaceScalarField;
    location    "400";
    object      phi;
}
// * * * * * * * * * * * * * * * * * * * * * * * * * * * * * * * * * * * * * //

dimensions      [1 0 -1 0 0 0 0];

internalField   nonuniform List<scalar> 
11200
(
0.00477122
-0.00950104
0.00477122
0.00645965
-0.00571405
0.0040256
0.00573999
-0.0021842
0.00290389
0.00370317
7.3629e-05
0.00196328
0.00110988
0.00112285
0.00147053
-0.00122877
0.00139763
0.000941019
-0.00343107
0.00152622
0.000676052
-0.00543726
0.00126685
0.0007393
-0.00689826
0.000613196
0.000847767
-0.00762247
-0.000244493
0.000968654
-0.00775831
-0.00090922
0.00104503
-0.00756273
-0.00120269
0.00100713
-0.00728584
-0.0011495
0.00087264
-0.00700651
-0.00101235
0.000733078
-0.00674178
-0.000923321
0.000658653
-0.00648776
-0.000948289
0.00069435
-0.00615962
-0.00122195
0.000893891
-0.00552863
-0.00195093
0.00132004
-0.00400246
-0.00350604
0.00197995
-0.00670628
0.00270386
0.00215382
-0.0138087
0.00215382
0.00339043
-0.00890404
0.00195334
0.00330391
-0.00355437
0.00145668
0.00216645
0.000232805
0.000978304
0.000910221
0.00147867
0.000900427
-0.000338153
0.00205148
0.000594461
-0.00166835
0.00245221
0.000404121
-0.00309355
0.00218721
0.000504767
-0.00425364
0.00107373
0.000699504
-0.00492333
-0.000532506
0.000957673
-0.00525826
-0.00175677
0.00118247
-0.00541162
-0.00225792
0.00120858
-0.00552628
-0.00204604
0.00101123
-0.0055677
-0.00171609
0.000745189
-0.00543585
-0.00163491
0.000579766
-0.00513597
-0.00177065
0.000522523
-0.00464357
-0.00226893
0.000554622
-0.00383604
-0.00342248
0.000664059
-0.00243755
-0.00575912
0.000854603
-0.0104009
0.00125709
0.000894932
-0.0155986
0.000894932
0.0017355
-0.0107667
0.00102201
0.00222377
-0.00498002
0.000937348
0.0022606
-0.000652968
0.00084895
0.00174558
0.00121092
0.000782758
0.00123787
0.00199751
0.000561635
0.000763765
0.00256809
0.000358142
0.000104615
0.00245418
0.000392103
-0.000491932
0.00112003
0.000550205
-0.00116315
-0.000858293
0.000997003
-0.0018528
-0.00246748
0.00140037
-0.00245245
-0.00326797
0.00160973
-0.0029562
-0.00309832
0.00155606
-0.0034028
-0.00246742
0.00119796
-0.003591
-0.00226334
0.000816665
-0.00346959
-0.00244324
0.000551215
-0.00307233
-0.00304021
0.000374047
-0.0023908
-0.00435321
0.000249234
-0.00133954
-0.00699534
0.000184984
-0.0122061
0.000465677
0.000293799
-0.0161861
0.000293799
0.00072937
-0.0118618
0.000659589
0.00144852
-0.00664665
0.000947453
0.00214558
-0.00239594
0.00104589
0.00243935
-0.000119939
0.00103707
0.00261352
0.000926593
0.000896705
0.00298531
0.00147257
0.000723663
0.00353112
0.00121549
0.000692828
0.00368223
0.000106762
0.000862107
0.00320227
-0.00165301
0.00127466
0.00220605
-0.00308314
0.00161189
0.00110616
-0.0039613
0.00179327
0.000137307
-0.00405999
0.00193059
-0.000655351
-0.00350829
0.00183359
-0.00123899
-0.00308292
0.00140327
-0.00149661
-0.00312098
0.000935406
-0.00140583
-0.00368159
0.000550631
-0.00104324
-0.00498642
0.000270653
-0.000415501
-0.00770513
8.20708e-05
-0.0129127
0.000291073
-5.68184e-05
-0.0160725
-5.68184e-05
-7.62013e-05
-0.0123783
0.000535906
0.000399595
-0.00821881
0.00109635
0.00129835
-0.00476817
0.00147346
0.00227461
-0.0027466
0.00165039
0.00323601
-0.00166809
0.00163327
0.00425169
-0.00111962
0.00157648
0.00520119
-0.00135306
0.00161901
0.0058054
-0.0022705
0.00177303
0.00570051
-0.00337993
0.00183183
0.00511958
-0.00429155
0.00178936
0.00426472
-0.00482959
0.00172319
0.00333917
-0.00495204
0.00181766
0.00247037
-0.00467255
0.00203313
0.0016194
-0.0042389
0.00200703
0.000933721
-0.00408363
0.00164839
0.00056268
-0.00447559
0.0011651
0.000416444
-0.00558988
0.000749737
0.000478965
-0.00819516
0.000427534
-0.0129572
0.00052347
-0.000285562
-0.0155013
-0.000285562
-0.000813006
-0.0123909
0.000540057
-0.000816031
-0.0093687
0.00115295
-0.000164981
-0.00704544
0.00162623
0.000840231
-0.00561438
0.00186258
0.00208793
-0.00477166
0.0018559
0.003374
-0.00420201
0.00179634
0.00452319
-0.00423592
0.0017337
0.0054034
-0.00480846
0.00165778
0.00594403
-0.00546371
0.00154317
0.00617729
-0.00592477
0.00139999
0.00613411
-0.00609633
0.00130997
0.0058253
-0.00601515
0.00137198
0.0052892
-0.00576877
0.00163239
0.00457097
-0.00546185
0.00194127
0.00371791
-0.00525652
0.00202605
0.00286738
-0.00543028
0.0018053
0.00214746
-0.0062718
0.00140189
0.00137741
-0.00843333
0.00100827
-0.0125325
0.000952852
-0.000577561
-0.014346
-0.000577561
-0.00155247
-0.0118656
0.00044967
-0.00201659
-0.00981536
0.000910843
-0.00175719
-0.00845685
0.00115207
-0.00087936
-0.00760702
0.00111486
0.000433033
-0.00698982
0.000905807
0.00190346
-0.00640221
0.000729809
0.00332996
-0.00627162
0.000609234
0.00465425
-0.00661562
0.000482903
0.00578984
-0.00693579
0.000336521
0.0066877
-0.00707726
0.000254657
0.00731846
-0.00701906
0.000291994
0.00763738
-0.00681614
0.000482103
0.00759506
-0.00655371
0.000827313
0.00717159
-0.00630339
0.00126508
0.00636634
-0.00608814
0.00163696
0.00525514
-0.00613206
0.00181307
0.00393808
-0.00668118
0.00172652
0.00232692
-0.00827513
0.00145302
-0.0115417
0.00133611
-0.00109752
-0.0121509
-0.00109752
-0.0025526
-0.0102373
-0.000173049
-0.00334042
-0.00893828
-8.91802e-05
-0.00328661
-0.00824558
-0.000265018
-0.0024619
-0.00782365
-0.000608026
-0.00100158
-0.00745781
-0.000992299
0.000834839
-0.0069768
-0.00126181
0.00266515
-0.00672627
-0.00137564
0.00442529
-0.00695426
-0.00142149
0.00601514
-0.00710857
-0.00141706
0.00735511
-0.0070945
-0.00132272
0.00840315
-0.00693119
-0.00113589
0.0091213
-0.00667707
-0.000857189
0.00945306
-0.00639613
-0.00048931
0.00935549
-0.00613576
-7.0008e-05
0.00868393
-0.00595651
0.000540006
0.00747131
-0.00594762
0.00102826
0.00571504
-0.00625876
0.00133395
0.00332104
-0.00726762
0.00138657
-0.00963368
0.00141312
-0.00210011
-0.00795053
-0.00210011
-0.00403455
-0.00677591
-0.00152689
-0.00500592
-0.00617016
-0.00179669
-0.00497748
-0.0059409
-0.00233307
-0.0040414
-0.00581269
-0.00294701
-0.00235126
-0.00567454
-0.00347339
-6.07859e-05
-0.00544276
-0.00382452
0.00231011
-0.00520934
-0.00388783
0.00456731
-0.00534758
-0.00386388
0.00659321
-0.0054167
-0.00371777
0.00828412
-0.00534722
-0.00343821
0.00960501
-0.00517656
-0.00307553
0.0105415
-0.00495474
-0.00265888
0.0110609
-0.00472272
-0.00219275
0.0111111
-0.0045074
-0.0016785
0.0106087
-0.00433711
-0.001117
0.00944924
-0.00424561
-0.000542465
0.00750821
-0.00429045
-2.71836e-05
0.00447379
-0.004754
0.000520898
-0.00612355
0.000963765
-0.00397521
-0.00397521
-0.00639729
-0.00435377
-0.00733197
-0.00523544
-0.00714203
-0.00613083
-0.00597475
-0.00697997
-0.00393234
-0.00771696
-0.00111802
-0.00825709
0.00214589
-0.00847327
0.00507328
-0.00827499
0.0075406
-0.00788404
0.00950476
-0.0073114
0.0109927
-0.00666451
0.0120367
-0.00599873
0.0126453
-0.0053313
0.0127864
-0.00464856
0.0123847
-0.0039354
0.0113134
-0.00317423
0.00935026
-0.00232726
0.0059352
-0.00133883
-0.000188229
0.0040256
-0.00571405
0.00645965
0.0054368
-0.00282238
0.0054368
0.0049061
-0.000547067
0.00398172
0.00327034
0.00085953
0.0027396
0.00137781
0.00121203
0.00215111
-0.000777302
0.00149779
0.00159831
-0.0031685
0.00173898
0.00132821
-0.00529268
0.00143975
0.00142366
-0.00683851
0.00082939
0.00156412
-0.00765459
0.00010776
0.0016769
-0.00787881
-0.000422964
0.00169215
-0.00774358
-0.000704693
0.00157658
-0.00746824
-0.000758268
0.00135558
-0.00713467
-0.000732525
0.00113207
-0.00676147
-0.000687883
0.000973381
-0.00634918
-0.000656772
0.000938911
-0.00585013
-0.000702107
0.00109704
-0.00508489
-0.000967914
0.00152284
-0.0035501
-0.00176939
0.00221469
-0.00372774
0.00288164
0.00195334
-0.00890404
0.00339043
0.00300644
-0.00492861
0.00300644
0.00292579
-0.0013019
0.00229218
0.00216461
0.000867996
0.00173103
0.00115809
0.00161599
0.00150299
-0.000111356
0.00221811
0.00114353
-0.00168695
0.00277052
0.0009481
-0.00337028
0.00252678
0.001101
-0.00475511
0.00154417
0.00136948
-0.00556034
0.000209133
0.00166147
-0.00590535
-0.000713306
0.00181778
-0.00599172
-0.00113442
0.00172466
-0.00599816
-0.00112117
0.00138057
-0.00594997
-0.00102657
0.000991063
-0.00578423
-0.00100047
0.000726645
-0.00547622
-0.00106142
0.000619207
-0.00497994
-0.00131896
0.000675243
-0.00417104
-0.0020161
0.000903396
-0.00275949
-0.00363294
0.00130665
-0.00707415
0.00184403
0.00102201
-0.0107667
0.0017355
0.0018954
-0.00667544
0.0018954
0.00240968
-0.00268446
0.00180561
0.00234024
0.00019334
0.00159305
0.00182118
0.00156083
0.00135696
0.00117743
0.00240492
0.00101853
0.000361022
0.00314871
0.000796274
-0.000746005
0.00311704
0.000908797
-0.00196139
0.00210303
0.00120669
-0.00295584
0.000520753
0.00167981
-0.00353865
-0.00087152
0.00214139
-0.00391215
-0.00144977
0.00229857
-0.00414751
-0.0013962
0.00206645
-0.00435097
-0.00118914
0.001564
-0.00442607
-0.00120562
0.00109693
-0.00429756
-0.00142606
0.000787363
-0.00392674
-0.00194406
0.000628371
-0.00322591
-0.00306487
0.000597215
-0.00204043
-0.0053331
0.000699679
-0.00978206
0.00113313
0.000659589
-0.0118618
0.00072937
0.00135872
-0.00807373
0.00135872
0.00205788
-0.00413839
0.00170219
0.00246953
-0.000898674
0.00172624
0.00249175
0.00101893
0.00155674
0.00241814
0.00211033
0.00126486
0.00240779
0.00285
0.00103267
0.00228009
0.00290787
0.00102963
0.00182045
0.00215907
0.00126566
0.000863657
0.00092622
0.00182596
-0.000341525
-0.000452603
0.00239816
-0.00137286
-0.00130282
0.00267768
-0.00203033
-0.0015212
0.00271307
-0.00244218
-0.00133653
0.00239284
-0.00273017
-0.001344
0.00182966
-0.00280582
-0.00172465
0.00130967
-0.00261873
-0.00248859
0.000908093
-0.00211644
-0.00392871
0.000632217
-0.00125579
-0.00659932
0.000487649
-0.0115345
0.000787747
0.000535906
-0.0123783
-7.62013e-05
0.000988855
-0.00897964
0.000988855
0.0015632
-0.00532782
0.00171142
0.00222126
-0.00210743
0.00202413
0.00278215
9.11397e-05
0.00201727
0.00327658
0.00142602
0.0018231
0.00385031
0.00221967
0.00163303
0.00439728
0.00235559
0.00162429
0.00466749
0.00182841
0.00183344
0.00430714
0.000939159
0.00217922
0.00320723
3.47516e-06
0.00243319
0.00177147
-0.000784397
0.00264054
0.000511971
-0.00130266
0.00285865
-0.000290015
-0.00144912
0.00294775
-0.000763269
-0.00153969
0.00267602
-0.00102892
-0.00198166
0.00217109
-0.00106822
-0.00290976
0.0016256
-0.000849783
-0.0045432
0.00114581
-0.000391022
-0.00739834
0.000767804
-0.0122886
0.000886498
0.000540057
-0.0123909
-0.000813006
0.000685649
-0.00927079
0.000685649
0.000954705
-0.00606785
0.00162393
0.00156874
-0.00319429
0.00209906
0.00242596
-0.00112151
0.00221801
0.0033842
0.000247072
0.00207659
0.00431121
0.00120376
0.00188522
0.00516153
0.0014138
0.00182514
0.00571564
0.0010359
0.00189617
0.00579518
0.000378474
0.0020243
0.00530198
-0.000217142
0.00211381
0.00434946
-0.000724445
0.00220255
0.003204
-0.00118155
0.00239635
0.00220018
-0.00156182
0.00274896
0.00148357
-0.00187899
0.00299724
0.000991125
-0.00236766
0.00290456
0.000680922
-0.00330377
0.00250957
0.000498072
-0.00493045
0.00197203
0.000434874
-0.00774379
0.00141694
-0.0121907
0.00128987
0.00044967
-0.0118656
-0.00155247
0.000250875
-0.00887313
0.000250875
0.000164043
-0.00621021
0.00114009
0.000648208
-0.00401285
0.00148651
0.0015691
-0.00231793
0.00139041
0.00265656
-0.00104218
0.00110762
0.00380199
-0.000161369
0.000949506
0.00480153
0.000127496
0.000895988
0.00555106
-0.000116883
0.000886148
0.00596228
-0.000578572
0.000882334
0.00606632
-0.000998596
0.000932073
0.00588382
-0.00132039
0.00107045
0.00543314
-0.00159576
0.00134703
0.00476563
-0.00188454
0.00181757
0.00400917
-0.00223401
0.00237662
0.0032935
-0.00279438
0.00277941
0.00261836
-0.0036469
0.00283143
0.0019528
-0.00506069
0.0025224
0.00118072
-0.0075147
0.00199607
-0.0113369
0.00166305
-0.000173049
-0.0102373
-0.0025526
-0.000757491
-0.00770417
-0.000757491
-0.00120223
-0.00565625
-0.000198338
-0.00101904
-0.00415795
-0.000303063
-0.000166344
-0.00292641
-0.000852216
0.0010813
-0.00184421
-0.00143789
0.00239737
-0.000994552
-0.0017447
0.00364001
-0.000694545
-0.00179623
0.00480494
-0.000940509
-0.0017628
0.00579563
-0.00133883
-0.0016475
0.0065629
-0.00166696
-0.00142163
0.00708281
-0.00188508
-0.00109111
0.00731543
-0.00204456
-0.000641008
0.00713846
-0.00222237
2.55017e-05
0.00662129
-0.00244331
0.000656513
0.00586045
-0.00285126
0.0013578
0.00483688
-0.0034895
0.00189452
0.00356682
-0.0045424
0.00208581
0.00201218
-0.00645912
0.00188573
-0.00953071
0.00161917
-0.00152689
-0.00677591
-0.00403455
-0.00294527
-0.00486734
-0.00294527
-0.00371181
-0.00362907
-0.00305728
-0.00365882
-0.00282228
-0.00372171
-0.00276937
-0.00217169
-0.00459118
-0.0011273
-0.00157094
-0.00538873
0.000859958
-0.000884402
-0.00592195
0.00270309
-0.000445353
-0.00598017
0.00454409
-0.000829462
-0.00581596
0.0061799
-0.0012353
-0.00545712
0.00749856
-0.00149361
-0.00493024
0.00848361
-0.00163434
-0.00431132
0.00912894
-0.00170991
-0.00363887
0.00940149
-0.00177682
-0.00291085
0.00927853
-0.00187689
-0.00212195
0.00866874
-0.00207048
-0.00128795
0.00748595
-0.00241391
-0.000435192
0.00567855
-0.00300676
0.000244675
0.00323897
-0.0041191
0.000620569
-0.00614971
0.000821826
-0.00435377
-0.00639729
-0.00678743
-0.00678743
-0.0077425
-0.00790944
-0.00753023
-0.00916538
-0.0063148
-0.0103671
-0.00421224
-0.0113905
-0.00121768
-0.0121361
0.00225079
-0.0123871
0.00528562
-0.0121393
0.00772286
-0.0115566
0.00958911
-0.0106713
0.0109492
-0.00965897
0.0118671
-0.00862659
0.0123712
-0.0076122
0.0124316
-0.00658586
0.0119667
-0.00554103
0.0108454
-0.00446683
0.00884165
-0.00333019
0.00550025
-0.00211645
-0.000837562
0.00290389
-0.0021842
0.00573999
0.00398172
-0.000547067
0.0049061
0.00364487
0.000673778
0.00364487
0.00261813
0.00109526
0.00267117
0.00143855
0.00106294
0.00226779
-0.000290992
0.00145399
0.00187383
-0.0026346
0.0018883
0.00178345
-0.00478714
0.0016148
0.0019613
-0.00637908
0.00106498
0.00209098
-0.007283
0.000482236
0.00209847
-0.00759925
6.00097e-05
0.0019483
-0.00753534
-0.000136692
0.00164928
-0.00728083
-0.000168584
0.00126961
-0.00692393
-0.000141384
0.000916516
-0.00648889
-0.000122231
0.000660535
-0.00595777
-0.000143992
0.00055178
-0.00526125
-0.00021096
0.000611508
-0.00425689
-0.000334724
0.000853272
-0.00266172
-0.000595973
0.0012156
-0.00123642
0.0014565
0.00145668
-0.00355437
0.00330391
0.00229218
-0.0013019
0.00292579
0.00237526
0.000507647
0.00237526
0.00192448
0.00135025
0.00192684
0.00116619
0.00166227
0.00166194
6.29265e-05
0.00230723
0.0013935
-0.00153058
0.00302501
0.00140481
-0.00331939
0.00284503
0.0016595
-0.00480747
0.0019813
0.00194116
-0.00572562
0.000916492
0.00214528
-0.00611699
0.000114104
0.00215499
-0.00620197
-0.000218286
0.00189118
-0.00615391
-0.000252293
0.00141619
-0.00601348
-0.000205833
0.000915074
-0.00574933
-0.000183901
0.000524177
-0.00533794
-0.000219212
0.000283052
-0.00474022
-0.000348294
0.000214889
-0.00384744
-0.00064872
0.000324659
-0.00242168
-0.00130858
0.000593539
-0.00271966
0.000905654
0.000937348
-0.00498002
0.00222377
0.00180561
-0.00268446
0.00240968
0.00226545
-0.000412042
0.00226545
0.00214717
0.0011401
0.00192148
0.00165318
0.00195552
0.0015577
0.000999655
0.00276852
0.00121071
6.65531e-06
0.00364673
0.00116748
-0.00135296
0.00369249
0.00142087
-0.00280448
0.00284375
0.00179571
-0.00388347
0.00143156
0.00224368
-0.0044518
0.000257565
0.00256622
-0.00469307
-0.000229197
0.00255072
-0.00479378
-0.000253322
0.00216815
-0.00485698
-0.000172841
0.0015942
-0.00481867
-0.000210461
0.00108518
-0.00461641
-0.000371988
0.000737892
-0.00420036
-0.000704418
0.000568466
-0.00347721
-0.00135114
0.000576512
-0.00226995
-0.00259236
0.000776236
-0.00501865
0.0011622
0.000947453
-0.00664665
0.00144852
0.00170219
-0.00413839
0.00205788
0.00225968
-0.00152704
0.00225968
0.00242958
0.000608798
0.00208763
0.00227775
0.00193275
0.00173132
0.002053
0.00292639
0.00133171
0.00177495
0.0037835
0.00117388
0.00117042
0.00401423
0.00131236
0.000145539
0.00342916
0.00170508
-0.00109465
0.00218707
0.0023106
-0.00221743
0.000930224
0.00284827
-0.00292888
5.63513e-05
0.00310357
-0.00329657
-0.000155743
0.00298317
-0.00350965
-8.85998e-05
0.00252167
-0.00364808
-0.000193239
0.00195087
-0.0036392
-0.000565338
0.00149414
-0.00342356
-0.0012179
0.00120595
-0.00290733
-0.0023332
0.00109806
-0.00193731
-0.00423813
0.00116341
-0.00765469
0.00148644
0.00109635
-0.00821881
0.000399595
0.00171142
-0.00532782
0.0015632
0.00219143
-0.00248708
0.00219143
0.00253098
1.33127e-05
0.00228005
0.00271994
0.00173356
0.00202748
0.00290959
0.00291893
0.00164089
0.00313925
0.0037664
0.00142041
0.00322377
0.00405716
0.00149679
0.0029952
0.00366406
0.00182707
0.0022653
0.00278531
0.00231085
0.00096938
0.00181534
0.00284398
-0.000482404
0.000874942
0.00327374
-0.00148565
0.000266114
0.00344005
-0.00197523
3.47228e-05
0.00331401
-0.00224291
-0.000155095
0.00290556
-0.0023692
-0.000699078
0.00243113
-0.0023249
-0.00167238
0.0020358
-0.002021
-0.00322767
0.00173639
-0.00133832
-0.005674
0.00152098
-0.00973617
0.00162961
0.00115295
-0.0093687
-0.000816031
0.00162393
-0.00606785
0.000954705
0.00192364
-0.00308651
0.00192364
0.00230583
-0.000501686
0.00223185
0.00275562
0.00143709
0.00206468
0.00329699
0.00277
0.00168412
0.00389163
0.00363219
0.00142476
0.00438772
0.00394072
0.00144546
0.00460333
0.00365894
0.00168565
0.00436845
0.00300063
0.00204383
0.00361679
0.00224671
0.00243408
0.00237585
0.00153241
0.00278602
0.000998035
0.000871607
0.00316869
-4.90633e-06
0.000288834
0.00349782
-0.000525934
-0.000170556
0.00353376
-0.000790514
-0.000832669
0.00330276
-0.000902648
-0.0019873
0.00293665
-0.000839465
-0.0037994
0.00248059
-0.000541252
-0.00653667
0.0019814
-0.0107708
0.00178317
0.000910843
-0.00981536
-0.00201659
0.00114009
-0.00621021
0.000164043
0.00127406
-0.00335442
0.00127406
0.00163208
-0.000860711
0.00148753
0.00222628
0.00105379
0.00117951
0.00297455
0.00245611
0.000673212
0.00380448
0.00341829
0.000333443
0.00454699
0.00376744
0.000326728
0.00506691
0.00348662
0.000538513
0.00523903
0.00287401
0.000836815
0.00502507
0.00221062
0.00118211
0.00445753
0.00161494
0.00155545
0.00360025
0.00107006
0.00200586
0.00262168
0.00051459
0.00257041
0.00182018
-0.000147439
0.00315505
0.00126423
-0.000995464
0.00349822
0.000879215
-0.00219156
0.00342075
0.000559812
-0.00396581
0.00300827
0.000344968
-0.00668205
0.00235632
-0.0106183
0.00185557
-8.91802e-05
-0.00893828
-0.00334042
-0.000198338
-0.00565625
-0.00120223
-0.000398066
-0.00295492
-0.000398066
-3.31066e-05
-0.000958664
-0.00057005
0.000668085
0.000676474
-0.0011761
0.0016487
0.00196427
-0.00192668
0.00275165
0.00295508
-0.00238447
0.00379596
0.00332235
-0.00239549
0.00472675
0.00293079
-0.00213778
0.00542628
0.00226762
-0.00174067
0.00582685
0.00164986
-0.00126146
0.00593162
0.00115979
-0.000740747
0.0057551
0.000766741
-0.000161183
0.00538522
0.000364187
0.000545789
0.0047871
-0.000199044
0.00130626
0.00406777
-0.000956668
0.00203839
0.00326856
-0.00202055
0.00252279
0.0023687
-0.00351941
0.00253935
0.00130722
-0.00583586
0.00210108
-0.00922979
0.00153796
-0.00179669
-0.00617016
-0.00500592
-0.00305728
-0.00362907
-0.00371181
-0.00359564
-0.00187818
-0.00359564
-0.00342027
-0.000543573
-0.00431218
-0.00251326
0.000439166
-0.0052609
-0.000937696
0.00115252
-0.00615256
0.000981375
0.00187829
-0.00676427
0.00283367
0.00231537
-0.00682552
0.00454832
0.00191989
-0.00651974
0.00597068
0.00134166
-0.00595356
0.00701592
0.000883813
-0.00520947
0.00771523
0.000555412
-0.00440627
0.00811918
0.000318492
-0.00359459
0.0082261
0.000121285
-0.00277489
0.00801862
-0.00019715
-0.00191637
0.00744354
-0.000652512
-0.00101701
0.00646132
-0.00127058
-0.000202883
0.00496964
-0.00217973
0.000396762
0.00282267
-0.00367069
0.000602463
-0.0061223
0.000537112
-0.00523544
-0.00733197
-0.00790944
-0.0077425
-0.00884853
-0.00884853
-0.00848156
-0.0100759
-0.00703843
-0.0113711
-0.00469184
-0.0125846
-0.00146008
-0.0134896
0.00226093
-0.0137928
0.0055433
-0.0135018
0.00808874
-0.0127604
0.00994158
-0.0116403
0.0112232
-0.0103852
0.0120538
-0.00913873
0.0125141
-0.00795127
0.0125605
-0.00682941
0.0121252
-0.00575832
0.0110644
-0.00467657
0.00910183
-0.00354733
0.00570602
-0.00239127
-0.00125373
0.00196328
7.3629e-05
0.00370317
0.0027396
0.00085953
0.00327034
0.00267117
0.00109526
0.00261813
0.00218693
0.000968534
0.00218693
0.00153252
0.000883238
0.00203898
0.000176717
0.00139118
0.00183839
-0.00202761
0.00198199
0.00200571
-0.00413897
0.00174827
0.00232429
-0.00572349
0.00126216
0.00241322
-0.0066367
0.000795705
0.00221587
-0.00696334
0.000498931
0.0017759
-0.00690418
0.00041106
0.00117898
-0.00663955
0.000466403
0.000538493
-0.00628381
0.000564616
-3.92902e-06
-0.0058762
0.000627811
-0.00037496
-0.00536276
0.000620231
-0.000581977
-0.00464004
0.000525417
-0.000636694
-0.00357685
0.00035597
-0.000565938
-0.00203749
0.000113183
-0.00043697
-0.000198383
-0.000382589
0.000978304
0.000232805
0.00216645
0.00173103
0.000867996
0.00216461
0.00192684
0.00135025
0.00192448
0.0016488
0.0015246
0.0016488
0.00109735
0.00165772
0.0014389
0.000186502
0.00238074
0.00131473
-0.00131846
0.0032582
0.00163348
-0.00310206
0.00312341
0.00206788
-0.00461661
0.0023542
0.00236357
-0.00557811
0.00146295
0.00243945
-0.00600585
0.000826614
0.00225496
-0.00608441
0.000567438
0.00181329
-0.00598591
0.000576668
0.00120736
-0.00577559
0.000673946
0.000595382
-0.00544337
0.000743221
7.64998e-05
-0.00496606
0.000731803
-0.00030586
-0.00428465
0.000606073
-0.000547202
-0.00330617
0.00036146
-0.000659328
-0.00190578
-2.0596e-05
-0.000673065
-0.000568236
-0.000630254
0.00084895
-0.000652968
0.0022606
0.00159305
0.00019334
0.00234024
0.00192148
0.0011401
0.00214717
0.00178567
0.0017962
0.00178567
0.00134276
0.00227688
0.00138144
0.000740755
0.00309849
0.00109492
-0.000262803
0.00410515
0.00132402
-0.00173178
0.00421684
0.00179634
-0.00320937
0.00340632
0.00222111
-0.00427356
0.00219937
0.0025714
-0.00482245
0.00121441
0.00272725
-0.00500886
0.000743826
0.00256069
-0.00503071
0.000681265
0.00208537
-0.00498345
0.000740042
0.00148081
-0.00483594
0.000742529
0.000938335
-0.00453679
0.000634047
0.000536482
-0.00403371
0.000382342
0.000289101
-0.00323722
-6.33712e-05
0.000204853
-0.00198185
-0.00079943
0.000299718
-0.0019697
0.00058183
0.00104589
-0.00239594
0.00214558
0.00172624
-0.000898674
0.00246953
0.00208763
0.000608798
0.00242958
0.00208357
0.00180431
0.00208357
0.00183077
0.00268336
0.00157762
0.00152953
0.00361375
0.00111765
0.00106768
0.00460974
0.00113107
0.000106291
0.00495275
0.00153778
-0.00114253
0.0043298
0.00203036
-0.00236632
0.00314794
0.00258578
-0.00326627
0.00191066
0.00305195
-0.00374893
0.00111348
0.00321654
-0.00394622
0.000865222
0.00299648
-0.00403483
0.000842902
0.00250739
-0.0040583
0.000732385
0.00198447
-0.00395841
0.000438496
0.0015898
-0.00366569
-8.12543e-05
0.00137682
-0.00306478
-0.00095259
0.00138639
-0.00200768
-0.00230045
0.00160734
-0.00443467
0.00194373
0.00147346
-0.00476817
0.00129835
0.00202413
-0.00210743
0.00222126
0.00228005
1.33127e-05
0.00253098
0.00232992
0.00170454
0.00232992
0.00226853
0.00295317
0.00181903
0.00225833
0.00402667
0.00123813
0.00222586
0.00500769
0.00105486
0.00191651
0.00542462
0.0013342
0.00124497
0.00500403
0.00182434
0.000245654
0.00402918
0.00242888
-0.000953823
0.00287908
0.00307501
-0.00199734
0.00190802
0.00352271
-0.00261757
0.00129083
0.00363467
-0.0029129
0.00103382
0.00341841
-0.00307096
0.000773998
0.003022
-0.00311805
0.00026185
0.00265487
-0.00299479
-0.000603463
0.00243476
-0.0026078
-0.00196814
0.00236495
-0.00176522
-0.00397254
0.00235047
-0.00701445
0.00244412
0.00162623
-0.00704544
-0.000164981
0.00209906
-0.00319429
0.00156874
0.00223185
-0.000501686
0.00230583
0.00227175
0.00162472
0.00227175
0.00237851
0.00314526
0.0017658
0.00264072
0.00436779
0.00108074
0.00295215
0.00540231
0.000718664
0.00309023
0.00583309
0.000898857
0.0029465
0.00545667
0.0013767
0.00246227
0.00459101
0.0019662
0.0015952
0.00359509
0.00258512
0.000424312
0.00271244
0.00315248
-0.000691435
0.00196395
0.00361132
-0.00138838
0.0014017
0.00382689
-0.0017362
0.000879665
0.00377592
-0.0018859
0.000137004
0.00357731
-0.00191391
-0.000979793
0.003341
-0.00173865
-0.00273783
0.00307503
-0.00121127
-0.00524435
0.00272582
-0.00888089
0.00243828
0.00115207
-0.00845685
-0.00175719
0.00148651
-0.00401285
0.000648208
0.00148753
-0.000860711
0.00163208
0.0015322
0.00153536
0.0015322
0.00180166
0.00318918
0.000866112
0.00230302
0.00453193
7.67515e-06
0.00291483
0.00565159
-0.000527693
0.00343401
0.00607748
-0.000436898
0.00375524
0.00561223
6.1671e-05
0.00376834
0.0047077
0.000706984
0.00342923
0.00376882
0.00134745
0.00277417
0.00297428
0.00194866
0.0018891
0.00232939
0.00252548
0.00100874
0.00172889
0.00312359
0.00035159
0.00105201
0.00363987
-4.60463e-05
0.000138505
0.00389438
-0.000270003
-0.00115556
0.00382051
-0.000399329
-0.00304487
0.00344466
-0.000351281
-0.00576746
0.0028314
-0.00955219
0.00217557
-0.000265018
-0.00824558
-0.00328661
-0.000303063
-0.00415795
-0.00101904
-0.00057005
-0.000958664
-3.31066e-05
-0.000465044
0.00132534
-0.000465044
2.72661e-05
0.00288198
-0.00136123
0.000890619
0.00412104
-0.00237918
0.00198906
0.00524043
-0.0030718
0.00301518
0.00573235
-0.00307653
0.00391078
0.0051449
-0.0025661
0.00455268
0.00415201
-0.00182692
0.00484907
0.00325604
-0.00104509
0.00481723
0.00257227
-0.000306926
0.00451723
0.00206244
0.000405744
0.00405959
0.00160304
0.00112926
0.00349521
0.00104683
0.00187583
0.00291898
0.00016925
0.00258391
0.00227926
-0.000976178
0.00298317
0.00158484
-0.00269784
0.00288681
0.000811526
-0.00524132
0.00234833
-0.00876295
0.00156029
-0.00233307
-0.0059409
-0.00497748
-0.00372171
-0.00282228
-0.00365882
-0.00431218
-0.000543573
-0.00342027
-0.00410539
0.00091175
-0.00410539
-0.00322461
0.00188605
-0.00514577
-0.00170198
0.002708
-0.0062622
0.000352328
0.0035371
-0.00711529
0.00243087
0.00411954
-0.00729131
0.00429182
0.00359784
-0.00683367
0.00574969
0.00274068
-0.00600014
0.00671306
0.0020639
-0.00498075
0.00726635
0.00157949
-0.00396682
0.00752512
0.00123327
-0.00302421
0.0075572
0.000949418
-0.00215336
0.00737494
0.000640911
-0.00132821
0.00683978
0.000217609
-0.000530217
0.00595733
-0.000549774
0.000253193
0.00462934
-0.00166663
0.000693597
0.00262095
-0.00336366
0.000733285
-0.00603925
0.000434457
-0.00613083
-0.00714203
-0.00916538
-0.00753023
-0.0100759
-0.00848156
-0.00962009
-0.00962009
-0.00812273
-0.0109824
-0.00563876
-0.0123606
-0.00210783
-0.0134835
0.00216011
-0.0139413
0.00592486
-0.0136688
0.00867618
-0.0127711
0.0105274
-0.0114276
0.0116947
-0.00997309
0.0123803
-0.00859104
0.0127176
-0.00733917
0.0127406
-0.00621152
0.0123861
-0.00518619
0.0114157
-0.00425601
0.00946832
-0.00326655
0.00597401
-0.00226059
-0.00131888
0.00147053
0.00112285
0.00110988
0.00215111
0.00121203
0.00137781
0.00226779
0.00106294
0.00143855
0.00203898
0.000883238
0.00153252
0.00158292
0.000912087
0.00158292
0.00048444
0.00145582
0.00148098
-0.00149426
0.00206946
0.00191487
-0.00355256
0.00184621
0.0025363
-0.00516486
0.00138553
0.00263989
-0.006106
0.00100321
0.0021537
-0.00643373
0.000810683
0.00129286
-0.00637097
0.000795836
0.000320313
-0.00614285
0.000875968
-0.000565655
-0.0058654
0.000953349
-0.00123479
-0.00551991
0.000986223
-0.00170673
-0.00502714
0.000953216
-0.00202802
-0.00430123
0.000867383
-0.00223004
-0.00324366
0.00072382
-0.00234738
-0.00178376
0.000517089
-0.00241397
0.000252632
-0.00241898
0.000900427
0.00147867
0.000910221
0.00150299
0.00161599
0.00115809
0.00166194
0.00166227
0.00116619
0.0014389
0.00165772
0.00109735
0.00098321
0.00182343
0.00098321
0.000206013
0.0026237
0.000923989
-0.00115298
0.00358367
0.00147818
-0.00286416
0.0034303
0.00219489
-0.00437381
0.00268531
0.00257336
-0.00534595
0.00189436
0.00252035
-0.00576909
0.00137057
0.00211813
-0.00582786
0.00118207
0.00148575
-0.00570526
0.0012202
0.000740457
-0.00547357
0.00132689
-9.89741e-06
-0.00515239
0.00138034
-0.000638844
-0.00468681
0.00132247
-0.00114074
-0.00400207
0.00115624
-0.00152083
-0.00301959
0.000876309
-0.00179433
-0.00168265
0.000487972
-0.0019809
-3.5697e-05
-0.00202457
0.000782758
0.00121092
0.00174558
0.00135696
0.00156083
0.00182118
0.0015577
0.00195552
0.00165318
0.00138144
0.00227688
0.00134276
0.0009556
0.00267508
0.0009556
0.000372221
0.00361465
0.000687287
-0.000608485
0.00477312
0.0011152
-0.00203131
0.00484882
0.00180057
-0.0034246
0.00399189
0.00230775
-0.00440627
0.00286771
0.00257965
-0.00489359
0.00197811
0.00260696
-0.00503022
0.00153015
0.00234918
-0.0049937
0.00144011
0.00182888
-0.00487088
0.00147877
0.00120606
-0.00465109
0.00147201
0.00062683
-0.0042858
0.00134085
0.000152777
-0.00372156
0.00105145
-0.00017038
-0.00288538
0.000575442
-0.000330485
-0.00167748
-0.000108734
-0.000311476
-0.00103252
-9.88262e-05
0.00103707
-0.000119939
0.00243935
0.00155674
0.00101893
0.00249175
0.00173132
0.00193275
0.00227775
0.00157762
0.00268336
0.00183077
0.00121852
0.00339325
0.00121852
0.000821355
0.0044745
0.000654911
0.000192827
0.00574996
0.000782682
-0.000874176
0.0060633
0.00139023
-0.00210137
0.00527461
0.00197477
-0.00313316
0.00397384
0.00251139
-0.00379817
0.0027652
0.00292983
-0.00410101
0.00198621
0.00306327
-0.0041773
0.00167656
0.00283628
-0.00416136
0.00158265
0.00238753
-0.00407877
0.0014496
0.00192426
-0.00388791
0.00115847
0.00158129
-0.00352613
0.000647161
0.00141932
-0.00289433
-0.000148505
0.00147853
-0.00182648
-0.00135668
0.00178744
-0.00300037
0.00208509
0.00165039
-0.0027466
0.00227461
0.00201727
9.11397e-05
0.00278215
0.00202748
0.00173356
0.00271994
0.00181903
0.00295317
0.00226853
0.00151537
0.00400053
0.00151537
0.00129493
0.00526559
0.00066744
0.00101965
0.0066586
0.000421435
0.000410055
0.00710601
0.000901009
-0.000449322
0.00640333
0.00155493
-0.00137654
0.00506397
0.00226593
-0.00223091
0.00371826
0.00297628
-0.00285831
0.00267356
0.00346273