/*--------------------------------*- C++ -*----------------------------------*\
  =========                 |
  \\      /  F ield         | OpenFOAM: The Open Source CFD Toolbox
   \\    /   O peration     | Website:  https://openfoam.org
    \\  /    A nd           | Version:  8
     \\/     M anipulation  |
\*---------------------------------------------------------------------------*/
FoamFile
{
    version     2.0;
    format      ascii;
    class       volVectorField;
    location    "400";
    object      U;
}
// * * * * * * * * * * * * * * * * * * * * * * * * * * * * * * * * * * * * * //

dimensions      [0 1 -1 0 0 0 0];

internalField   nonuniform List<vector> 
4000
(
(0.0109008 -0.0359188 0.0109008)
(0.0227105 -0.0224737 0.0101156)
(0.0265345 -0.0111429 0.00821005)
(0.0214756 -0.00343397 0.0063881)
(0.0109649 0.0011304 0.00477569)
(-0.0011638 0.00352967 0.002512)
(-0.00994808 0.00362022 0.00184571)
(-0.0188659 0.00258701 0.00218252)
(-0.025715 0.00090659 0.00259537)
(-0.0295037 -0.000997556 0.00294978)
(-0.0307851 -0.00260395 0.0030967)
(-0.0306346 -0.00334721 0.00288051)
(-0.0297762 -0.00339567 0.00243116)
(-0.0286634 -0.0031812 0.00204951)
(-0.0275838 -0.0029834 0.00192106)
(-0.0266787 -0.00316268 0.00212913)
(-0.0257932 -0.00421982 0.00275098)
(-0.0240055 -0.0069382 0.00377978)
(-0.0193703 -0.0125609 0.00503589)
(-0.00957911 -0.0230109 0.00621699)
(0.00380302 -0.0485483 0.00380302)
(0.0112818 -0.0293047 0.00387355)
(0.0148077 -0.00974516 0.00335617)
(0.0124384 0.00324809 0.00264326)
(0.00681978 0.00651417 0.00265334)
(0.00106257 0.007288 0.00159514)
(-0.00416385 0.00800426 0.00114031)
(-0.0104107 0.00666442 0.00160464)
(-0.0156558 0.00331339 0.00231329)
(-0.0184644 -0.00158889 0.00313017)
(-0.0200669 -0.00540319 0.00373181)
(-0.0211947 -0.00662237 0.0036526)
(-0.0220494 -0.00601644 0.00289912)
(-0.0224782 -0.00540689 0.00199584)
(-0.0222533 -0.00510175 0.00148507)
(-0.0214295 -0.00535972 0.00126943)
(-0.019922 -0.00691362 0.00117963)
(-0.0173995 -0.0108791 0.00112121)
(-0.0133142 -0.0192236 0.0011755)
(-0.00411102 -0.0360873 0.00198809)
(0.00101189 -0.0599929 0.00101189)
(0.00519224 -0.0400546 0.00169933)
(0.00831259 -0.0170635 0.00204354)
(0.0101095 -0.000562328 0.00201882)
(0.00857308 0.00589239 0.00205513)
(0.00604455 0.00867026 0.00148374)
(0.00414683 0.0107796 0.000979895)
(0.00160773 0.0098987 0.001138)
(-0.00105039 0.00417178 0.0017041)
(-0.00291719 -0.00376631 0.00326485)
(-0.00554004 -0.00961565 0.00431567)
(-0.0083582 -0.0116328 0.00478972)
(-0.0109283 -0.00987829 0.00470329)
(-0.0131867 -0.00784758 0.00354007)
(-0.0144044 -0.00777689 0.0022087)
(-0.0144652 -0.00872077 0.00126378)
(-0.013377 -0.0111146 0.000550111)
(-0.0111476 -0.0162391 -5.0288e-05)
(-0.00851109 -0.0263447 -0.000414522)
(-0.000703356 -0.0464805 0.000505042)
(-0.000136569 -0.0641927 -0.000136569)
(0.00199825 -0.0457372 0.00103372)
(0.00388395 -0.0230638 0.0023012)
(0.00781651 -0.00513973 0.00271356)
(0.00974555 0.00383348 0.00262576)
(0.0102068 0.00747414 0.00233578)
(0.0110518 0.00969649 0.00198182)
(0.0122448 0.00931888 0.00200577)
(0.0146016 0.00475652 0.00271882)
(0.0146638 -0.00290769 0.00392168)
(0.0114416 -0.0102711 0.00436188)
(0.00683965 -0.0148363 0.00438277)
(0.00241807 -0.0148551 0.00500643)
(-0.00135446 -0.01129 0.00538832)
(-0.00427414 -0.0098189 0.00421617)
(-0.00591678 -0.0107585 0.00263945)
(-0.00615706 -0.0134377 0.00129744)
(-0.00488074 -0.0188725 0.000322574)
(-0.00411428 -0.0297049 -0.000264414)
(0.00178081 -0.051069 0.000568208)
(-0.000737423 -0.0651437 -0.000737423)
(-6.64539e-06 -0.0491092 0.000815934)
(-0.000467379 -0.0299935 0.00262764)
(0.00346365 -0.0138709 0.00394412)
(0.00731547 -0.00467175 0.00467468)
(0.0111456 0.000719396 0.00473757)
(0.0148989 0.00325827 0.00474204)
(0.0188293 0.00170626 0.00500399)
(0.0224004 -0.00347301 0.0052891)
(0.0234812 -0.00896852 0.00480395)
(0.022147 -0.0137072 0.00391662)
(0.0191703 -0.0168944 0.00311998)
(0.0154181 -0.0180708 0.00314176)
(0.0116472 -0.0168431 0.00430626)
(0.00802662 -0.0143608 0.00527839)
(0.00476869 -0.0136463 0.00472154)
(0.0025096 -0.0158056 0.00325103)
(0.00215071 -0.0210001 0.00187949)
(0.000788165 -0.0321463 0.000955298)
(0.00394019 -0.0524307 0.00137253)
(-0.00131588 -0.0640897 -0.00131588)
(-0.00163504 -0.0503964 0.000630699)
(-0.00439883 -0.0362454 0.00210622)
(-0.00232764 -0.024732 0.00340297)
(0.00111475 -0.0178293 0.00395322)
(0.00579587 -0.0143421 0.00372966)
(0.0110003 -0.0122977 0.00347688)
(0.0159483 -0.0127316 0.00303958)
(0.0199892 -0.0153648 0.00227601)
(0.0229215 -0.0185982 0.00134694)
(0.0245683 -0.0210578 0.000562118)
(0.0250014 -0.0222293 0.000178208)
(0.024302 -0.022236 0.000397388)
(0.0225625 -0.0214189 0.0013878)
(0.0199356 -0.0201378 0.00296853)
(0.0166042 -0.0190942 0.00426398)
(0.0129733 -0.0198394 0.00441199)
(0.0101702 -0.0237891 0.00353462)
(0.00622776 -0.0336588 0.0025208)
(0.00613237 -0.0516598 0.00247374)
(-0.00222823 -0.0607978 -0.00222823)
(-0.00355428 -0.0496957 -0.000155796)
(-0.00826518 -0.039879 0.000280846)
(-0.00807466 -0.0332125 0.000278625)
(-0.00580745 -0.0292492 -0.000450299)
(-0.00120552 -0.0265715 -0.00172481)
(0.00464175 -0.0241959 -0.00278985)
(0.010677 -0.0238394 -0.00341192)
(0.0160218 -0.0254223 -0.0038854)
(0.021047 -0.027028 -0.00417267)
(0.0252242 -0.0278555 -0.00419206)
(0.0283453 -0.0277484 -0.00387227)
(0.0302915 -0.026928 -0.00315353)
(0.0308926 -0.0257797 -0.00200828)
(0.0300024 -0.0246618 -0.000471918)
(0.0274785 -0.0238414 0.00125279)
(0.0234885 -0.0241009 0.00273485)
(0.0187668 -0.0266202 0.00341383)
(0.0118893 -0.0340365 0.00324783)
(0.00858961 -0.0488632 0.00330325)
(-0.00407289 -0.0531838 -0.00407289)
(-0.00671272 -0.0449838 -0.00238681)
(-0.0130077 -0.0390195 -0.00322647)
(-0.0139992 -0.0355956 -0.00466048)
(-0.0120908 -0.0333994 -0.00645697)
(-0.00738174 -0.0314938 -0.00822477)
(-0.000704949 -0.0292699 -0.00957341)
(0.00747543 -0.0283578 -0.0100664)
(0.0142551 -0.0292056 -0.0101012)
(0.021046 -0.0298849 -0.0098368)
(0.027009 -0.0299213 -0.00923876)
(0.0318322 -0.0293414 -0.00835522)
(0.0353993 -0.028379 -0.00722407)
(0.0375598 -0.0273212 -0.00586627)
(0.0381516 -0.026365 -0.00435208)
(0.0366679 -0.0255169 -0.00263438)
(0.0329175 -0.0254148 -0.000742604)
(0.0271209 -0.026816 0.00104877)
(0.0178025 -0.0316068 0.00226229)
(0.0115247 -0.0424504 0.00320506)
(-0.00763603 -0.0397002 -0.00763603)
(-0.0122536 -0.0340192 -0.00720939)
(-0.0193861 -0.0307865 -0.00918621)
(-0.0207943 -0.029332 -0.0116243)
(-0.0186302 -0.0284329 -0.0141544)
(-0.0131999 -0.027542 -0.0163819)
(-0.00580222 -0.0262293 -0.0180259)
(0.00526707 -0.02551 -0.0185053)
(0.013932 -0.0261448 -0.0181084)
(0.0225204 -0.0265378 -0.0172551)
(0.0300538 -0.026313 -0.015987)
(0.0361269 -0.0255746 -0.0144837)
(0.0406689 -0.0245355 -0.0128512)
(0.0436215 -0.023411 -0.0111222)
(0.0448318 -0.0223671 -0.00930351)
(0.0440382 -0.0216366 -0.0073579)
(0.0408703 -0.0213761 -0.00525011)
(0.0349496 -0.0218667 -0.00293966)
(0.0243381 -0.0242931 -0.00062127)
(0.0153771 -0.0310773 0.00174582)
(-0.0136353 -0.0239067 -0.0136353)
(-0.0216672 -0.0182399 -0.0156432)
(-0.0288151 -0.0151802 -0.0191947)
(-0.0298103 -0.0136145 -0.0227057)
(-0.0268062 -0.0124758 -0.0260756)
(-0.020269 -0.0113256 -0.0290997)
(-0.0114863 -0.00993479 -0.0315085)
(0.00277493 -0.0086028 -0.0326015)
(0.0149612 -0.00974714 -0.0314812)
(0.0254878 -0.010779 -0.0296804)
(0.0344193 -0.0113963 -0.0273899)
(0.0413866 -0.0116451 -0.0249268)
(0.046471 -0.0116418 -0.0224479)
(0.0498013 -0.0115002 -0.0199943)
(0.0513558 -0.0113186 -0.0175199)
(0.0509333 -0.0112189 -0.0149687)
(0.0481445 -0.0113579 -0.0122563)
(0.0423876 -0.011949 -0.00922529)
(0.0317215 -0.0136316 -0.00563089)
(0.0204703 -0.0178768 -0.00115045)
(0.0101156 -0.0224737 0.0227105)
(0.019562 -0.0126998 0.019562)
(0.0226241 -0.0052447 0.0147298)
(0.0177639 -0.000318122 0.0100203)
(0.010214 0.0021544 0.00747694)
(0.00160444 0.00397631 0.00522518)
(-0.00862311 0.00424906 0.00403398)
(-0.0179697 0.00309766 0.00431623)
(-0.0252246 0.0015206 0.00487408)
(-0.0295697 -4.32588e-05 0.00545713)
(-0.0312317 -0.00125445 0.00574744)
(-0.0313076 -0.00191422 0.00551235)
(-0.0305142 -0.00212926 0.00484799)
(-0.029308 -0.00213144 0.00415704)
(-0.0279049 -0.00206851 0.00374171)
(-0.0264069 -0.00206376 0.00384391)
(-0.0247195 -0.00229138 0.00477295)
(-0.0221814 -0.00318059 0.00681405)
(-0.017414 -0.00569109 0.00982785)
(-0.00982555 -0.011367 0.0128225)
(0.00387355 -0.0293047 0.0112818)
(0.0104356 -0.0140237 0.0104356)
(0.012934 -0.000903872 0.0080219)
(0.0111355 0.00556236 0.00584383)
(0.00718413 0.00663824 0.00502385)
(0.00273107 0.00784589 0.00359122)
(-0.00373599 0.0092005 0.00259558)
(-0.0108269 0.00785576 0.00305113)
(-0.0170808 0.00468442 0.00406973)
(-0.0210651 0.000805444 0.00534493)
(-0.0229426 -0.00228591 0.0062718)
(-0.0237874 -0.00360234 0.00621288)
(-0.0240791 -0.00375209 0.00514333)
(-0.0240686 -0.00362625 0.00386526)
(-0.0236626 -0.00343488 0.00307256)
(-0.0227616 -0.00338206 0.00286923)
(-0.0212208 -0.00385297 0.00324315)
(-0.018622 -0.00563455 0.00414053)
(-0.0142292 -0.0104601 0.00543026)
(-0.00664901 -0.0216757 0.00712613)
(0.00169933 -0.0400546 0.00519224)
(0.00601081 -0.0236133 0.00601081)
(0.00903092 -0.00820819 0.00574883)
(0.0102024 0.00237512 0.00515582)
(0.00876627 0.00676819 0.00449408)
(0.00633765 0.00971756 0.00328721)
(0.00349478 0.0124565 0.0022328)
(-0.000944083 0.0116249 0.00241552)
(-0.00590557 0.00677166 0.00340357)
(-0.0101134 0.000553119 0.00544991)
(-0.0128179 -0.00388894 0.00742974)
(-0.0148744 -0.00540882 0.00828208)
(-0.0162219 -0.00483826 0.00765816)
(-0.0172259 -0.00428132 0.00586715)
(-0.0178088 -0.00442666 0.00416376)
(-0.0177211 -0.00505235 0.00303472)
(-0.0167451 -0.006671 0.0023918)
(-0.014617 -0.0104434 0.00207778)
(-0.0111693 -0.0184698 0.00202998)
(-0.00390126 -0.0347327 0.00312502)
(0.00103372 -0.0457372 0.00199825)
(0.00410425 -0.0298088 0.00410425)
(0.00676232 -0.0136757 0.00548792)
(0.00951524 -0.00103461 0.00578441)
(0.0102863 0.00573089 0.00544808)
(0.00999378 0.00966961 0.00456652)
(0.00974104 0.0127469 0.00364373)
(0.00913237 0.01308 0.00346821)
(0.0081925 0.00979384 0.00422123)
(0.00604247 0.00356541 0.00619077)
(0.00122752 -0.00328316 0.00837341)
(-0.00356554 -0.00640659 0.00956522)
(-0.00702949 -0.00619037 0.00995447)
(-0.00919472 -0.00475933 0.00892976)
(-0.0106611 -0.00485203 0.00677733)
(-0.0113834 -0.00626519 0.0047108)
(-0.0111499 -0.00900046 0.00305134)
(-0.00971006 -0.0143312 0.00179619)
(-0.00761207 -0.0244969 0.000913801)
(-0.00120101 -0.0437873 0.00186165)
(0.000815934 -0.0491092 -6.64539e-06)
(0.00335303 -0.0346294 0.00335303)
(0.00461441 -0.0192259 0.00600168)
(0.00764563 -0.00588077 0.00739829)
(0.0102519 0.00293564 0.0077155)
(0.0122022 0.0079383 0.00737968)
(0.0142515 0.0110168 0.00687996)
(0.0164391 0.0113449 0.00690339)
(0.0182936 0.00867901 0.00769674)
(0.0186644 0.00447451 0.00873068)
(0.0158283 -5.85437e-05 0.00930927)
(0.0102579 -0.00406346 0.00961066)
(0.004201 -0.00621996 0.0103127)
(3.12909e-05 -0.00588766 0.010927)
(-0.00236924 -0.00548741 0.0100363)
(-0.0039068 -0.00710467 0.00802524)
(-0.00453104 -0.0107527 0.00580547)
(-0.00387286 -0.0171892 0.00387235)
(-0.00348824 -0.0285424 0.00230365)
(0.00127691 -0.0487605 0.00282308)
(0.000630699 -0.0503964 -0.00163504)
(0.00322502 -0.0373947 0.00322502)
(0.00247113 -0.0235111 0.00639063)
(0.00483019 -0.0110123 0.00835746)
(0.00794237 -0.00221738 0.00931106)
(0.0117131 0.00373722 0.00932991)
(0.0154397 0.00688861 0.00900512)
(0.0190487 0.00747251 0.00890499)
(0.0219957 0.00574912 0.00907563)
(0.0235038 0.00288771 0.00920121)
(0.0228164 -7.58961e-05 0.00898752)
(0.0197781 -0.00266703 0.00875034)
(0.0152113 -0.00486546 0.00902309)
(0.0106021 -0.00641661 0.010079)
(0.00717374 -0.00725229 0.0110865)
(0.00478062 -0.0087374 0.0108156)
(0.00306584 -0.0123822 0.00927235)
(0.00255075 -0.0191466 0.0071769)
(0.000957225 -0.0309506 0.0051542)
(0.00342673 -0.0499863 0.00487521)
(-0.000155796 -0.0496957 -0.00355428)
(0.00271975 -0.0376573 0.00271975)
(-0.000238913 -0.0258569 0.00556076)
(0.00120146 -0.0157107 0.00693776)
(0.00415909 -0.00811264 0.00702522)
(0.0084228 -0.00262106 0.00663089)
(0.0131171 0.00122222 0.0065199)
(0.0174089 0.00240425 0.00637891)
(0.0209145 0.00139296 0.00604315)
(0.0233075 -0.000507723 0.00543575)
(0.0244067 -0.00232419 0.00500621)
(0.0242345 -0.00387563 0.00498696)
(0.0229014 -0.00534714 0.00558982)
(0.020563 -0.00693921 0.00696763)
(0.0176126 -0.00874982 0.00878928)
(0.0146402 -0.0110361 0.0101661)
(0.011794 -0.0145183 0.0104095)
(0.00942928 -0.0205519 0.00938722)
(0.00546153 -0.0312401 0.00761381)
(0.00548159 -0.0479475 0.00669369)
(-0.00238681 -0.0449838 -0.00671272)
(-8.08399e-05 -0.0341124 -8.08399e-05)
(-0.00511374 -0.0250973 0.0014842)
(-0.00504234 -0.0179459 0.00106205)
(-0.00290218 -0.0118257 -0.000745569)
(0.00172448 -0.00653296 -0.00266838)
(0.00711162 -0.00280864 -0.00369115)
(0.0122601 -0.00144338 -0.00406175)
(0.0169948 -0.00244106 -0.00434576)
(0.0213662 -0.0041888 -0.00442876)
(0.0249622 -0.00571773 -0.00404395)
(0.0275696 -0.00679817 -0.00315514)
(0.0290974 -0.00765133 -0.00174386)
(0.0292956 -0.00858006 0.000280489)
(0.0277912 -0.00968105 0.00293984)
(0.0252769 -0.0118939 0.00540958)
(0.021701 -0.0150947 0.00730624)
(0.0173012 -0.0199964 0.00810986)
(0.0105256 -0.0285466 0.00756869)
(0.00796565 -0.0420384 0.00693745)
(-0.00720939 -0.0340192 -0.0122536)
(-0.00811264 -0.0259632 -0.00811264)
(-0.014513 -0.0202052 -0.00875311)
(-0.0154501 -0.0161611 -0.011326)
(-0.01341 -0.012801 -0.0145039)
(-0.00831211 -0.00981407 -0.0172636)
(-0.000660987 -0.00681184 -0.019009)
(0.00747247 -0.00575996 -0.0191017)
(0.0146615 -0.00672955 -0.0189053)
(0.0216541 -0.00810479 -0.0180472)
(0.027651 -0.00903998 -0.0164903)
(0.0322921 -0.00951147 -0.0145078)
(0.0355618 -0.00972939 -0.0122505)
(0.0374243 -0.00999167 -0.00971547)
(0.0377712 -0.0105171 -0.00687546)
(0.0363958 -0.0115376 -0.00380315)
(0.032932 -0.0132693 -0.00067563)
(0.027075 -0.0161202 0.00200313)
(0.017771 -0.0215687 0.00349613)
(0.0118606 -0.0309785 0.0045455)
(-0.0156432 -0.0182399 -0.0216672)
(-0.0230356 -0.010003 -0.0230356)
(-0.030586 -0.00534706 -0.0272494)
(-0.0315242 -0.002622 -0.0318837)
(-0.0284061 -0.00061519 -0.036358)
(-0.02159 0.0012231 -0.0402382)
(-0.0120976 0.00318873 -0.0431419)
(0.00255537 0.00486015 -0.0441801)
(0.0157582 0.00337366 -0.0430666)
(0.026416 0.0016826 -0.0408305)
(0.0350821 0.000339123 -0.0376381)
(0.0415377 -0.000652378 -0.0340633)
(0.0460563 -0.00138053 -0.0304296)
(0.0489005 -0.00195542 -0.0268345)
(0.0500798 -0.002482 -0.0231809)
(0.0493793 -0.00316638 -0.019416)
(0.0463852 -0.00430386 -0.0154813)
(0.0404719 -0.0063543 -0.0112447)
(0.029741 -0.0101298 -0.00654791)
(0.0186434 -0.0171158 -0.00116621)
(0.00821005 -0.0111429 0.0265345)
(0.0147298 -0.0052447 0.0226241)
(0.0164285 -0.000887949 0.0164285)
(0.0131304 0.00143496 0.0114085)
(0.00875435 0.00236686 0.00919959)
(0.00366015 0.00407164 0.00725156)
(-0.00642117 0.00480729 0.00641207)
(-0.0157975 0.00368396 0.00696179)
(-0.0232486 0.0022712 0.00756208)
(-0.0279141 0.00104132 0.00789049)
(-0.0300479 0.000226619 0.00771611)
(-0.0303866 -0.000125731 0.00698179)
(-0.0297363 -0.000178325 0.00589742)
(-0.0285225 -0.000141919 0.00489122)
(-0.026967 -0.000170488 0.00421352)
(-0.0250894 -0.000333644 0.00402029)
(-0.0226636 -0.000622888 0.00451976)
(-0.019153 -0.00107337 0.00595942)
(-0.0139146 -0.00193098 0.00831414)
(-0.00772141 -0.00372643 0.0105959)
(0.00335617 -0.00974516 0.0148077)
(0.0080219 -0.000903872 0.012934)
(0.0100913 0.00471426 0.0100913)
(0.00908634 0.0062277 0.00776256)
(0.00657274 0.00603245 0.00667115)
(0.0034914 0.00783638 0.00535976)
(-0.00291278 0.0100395 0.00489125)
(-0.0102718 0.00893074 0.00567897)
(-0.0170295 0.0060464 0.00680332)
(-0.0215986 0.00278213 0.00783305)
(-0.0239099 0.0003526 0.00819415)
(-0.0247132 -0.000746012 0.00749094)
(-0.0248051 -0.000924719 0.00584602)
(-0.0244897 -0.000781608 0.00407683)
(-0.0237142 -0.000627856 0.00280731)
(-0.0223967 -0.000639349 0.00219013)
(-0.0203936 -0.000904499 0.00231456)
(-0.0173327 -0.00160431 0.00329713)
(-0.0126872 -0.00326047 0.00512515)
(-0.00665601 -0.00709286 0.00744528)
(0.00204354 -0.0170635 0.00831259)
(0.00574883 -0.00820819 0.00903092)
(0.00854513 0.000235046 0.00854513)
(0.00927866 0.00524643 0.00739275)
(0.00794115 0.00755039 0.00616154)
(0.00579471 0.0104909 0.00474349)
(0.00268369 0.0137987 0.00410504)
(-0.00275403 0.0132522 0.00480763)
(-0.00880394 0.00918616 0.00617843)
(-0.0138141 0.0041361 0.00808208)
(-0.0168809 0.00046931 0.0096905)
(-0.0183784 -0.000980129 0.00998477)
(-0.0190513 -0.000951357 0.00869952)
(-0.0194376 -0.000750435 0.00650028)
(-0.0195486 -0.000768082 0.00455225)
(-0.019111 -0.00105369 0.00329359)
(-0.0178941 -0.00183838 0.00275965)
(-0.0155669 -0.00357598 0.0029348)
(-0.0117339 -0.00721691 0.00385103)
(-0.00591387 -0.0147908 0.00580965)
(0.0023012 -0.0230638 0.00388395)
(0.00548792 -0.0136757 0.00676232)
(0.00805511 -0.00383276 0.00805511)
(0.00973938 0.00376165 0.00786335)
(0.0096801 0.00812267 0.00688097)
(0.00887823 0.0117531 0.00548794)
(0.00792847 0.0153071 0.00461005)
(0.00595647 0.0160681 0.00479122)
(0.00277773 0.0132051 0.00598366)
(-0.00176818 0.00696625 0.00850838)
(-0.00671453 0.00145403 0.0108154)
(-0.010567 -0.00100566 0.0119547)
(-0.0126676 -0.000994486 0.0117413)
(-0.0137666 -0.000466031 0.0100377)
(-0.01451 -0.000793728 0.00769817)
(-0.0148075 -0.001854 0.0057448)
(-0.0143845 -0.00378458 0.00439205)
(-0.0128998 -0.00729889 0.00362476)
(-0.0101416 -0.0136801 0.00348857)
(-0.00447349 -0.0256828 0.00477751)
(0.00262764 -0.0299935 -0.000467379)
(0.00600168 -0.0192259 0.00461441)
(0.00767733 -0.00823925 0.00767733)
(0.00962486 0.00128487 0.00871035)
(0.0106534 0.00759226 0.00833692)
(0.011333 0.0119912 0.00721961)
(0.0122062 0.0154084 0.00632568)
(0.0128213 0.0165369 0.00633251)
(0.0125782 0.014669 0.00733108)
(0.0109995 0.0106061 0.00904077)
(0.00729092 0.0059193 0.0106937)
(0.000833401 0.00138934 0.0121975)
(-0.00455316 -0.000373849 0.0131113)
(-0.00724531 -0.00022601 0.0129421)
(-0.00864334 -0.000614517 0.0113748)
(-0.0094476 -0.00251749 0.00928648)
(-0.00962744 -0.0059192 0.00731724)
(-0.00885768 -0.011475 0.00565882)
(-0.00741251 -0.0204881 0.00434951)
(-0.00222213 -0.0360118 0.00473153)
(0.00210622 -0.0362454 -0.00439883)
(0.00639063 -0.0235111 0.00247113)
(0.00674366 -0.0117028 0.00674366)
(0.00843422 -0.00120824 0.00874024)
(0.0101443 0.00630458 0.00885405)
(0.0121157 0.0114138 0.0078806)
(0.0144372 0.0147956 0.006936)
(0.0166922 0.0160072 0.00673147)
(0.0182263 0.0147544 0.00725594)
(0.0183922 0.0118397 0.00819984)
(0.0165575 0.00849677 0.00916196)
(0.0125311 0.00526639 0.0101027)
(0.00669169 0.00229374 0.0113978)
(0.00134739 0.00039818 0.0130302)
(-0.00140743 -0.000746617 0.0135599)
(-0.00282999 -0.00307858 0.0126573)
(-0.00358977 -0.00751814 0.0109264)
(-0.00344431 -0.0145865 0.00879394)
(-0.0036674 -0.0254029 0.00652682)
(0.000347798 -0.0426296 0.00579418)
(0.000280846 -0.039879 -0.00826518)
(0.00556076 -0.0258569 -0.000238913)
(0.00415986 -0.0138968 0.00415986)
(0.00565898 -0.00353427 0.00592701)
(0.00771663 0.00420762 0.00553704)
(0.0103686 0.00979715 0.00389667)
(0.0136099 0.0135243 0.00272082)
(0.0168485 0.0149505 0.00242056)
(0.0194716 0.0140413 0.00267842)
(0.0209564 0.0117582 0.00322454)
(0.02093 0.00912919 0.00400637)
(0.0193459 0.00662048 0.00505979)
(0.0163719 0.004176 0.00662561)
(0.0123945 0.00154508 0.00893353)
(0.00858855 -0.0011152 0.0113995)
(0.00598799 -0.00419722 0.0128453)
(0.00416669 -0.00884025 0.0126695)
(0.00318459 -0.0161684 0.0110439)
(0.000810497 -0.0275014 0.00849734)
(0.00292665 -0.0443085 0.00675866)
(-0.00322647 -0.0390195 -0.0130077)
(0.0014842 -0.0250973 -0.00511374)
(-0.00241997 -0.0133819 -0.00241997)
(-0.00122054 -0.00362601 -0.00260406)
(0.00109386 0.00413007 -0.00435031)
(0.0044892 0.00946986 -0.00673926)
(0.00881689 0.0132947 -0.00821245)
(0.0132323 0.0147042 -0.00838103)
(0.0172291 0.0134844 -0.00785329)
(0.0205485 0.0110618 -0.0069162)
(0.0227977 0.00859731 -0.0056231)
(0.0238197 0.0065139 -0.00404683)
(0.0236647 0.00473941 -0.00211143)
(0.0224174 0.0029323 0.000438898)
(0.0204466 0.000105404 0.00353374)
(0.0178085 -0.00386874 0.006575)
(0.0147777 -0.00891737 0.00869111)
(0.0116859 -0.0157129 0.00909376)
(0.0066024 -0.0258434 0.00772678)
(0.00598745 -0.0403511 0.00601217)
(-0.00918621 -0.0307865 -0.0193861)
(-0.00875311 -0.0202052 -0.014513)
(-0.0144153 -0.0120138 -0.0144153)
(-0.0145504 -0.00559602 -0.0169179)
(-0.0122995 -0.00020743 -0.0203045)
(-0.00731899 0.00425955 -0.0234278)
(-5.19148e-05 0.00829232 -0.0256198)
(0.00789567 0.00989134 -0.0258967)
(0.0149942 0.00814149 -0.0249818)
(0.0213141 0.005371 -0.0232082)
(0.0263099 0.00307485 -0.0207728)
(0.0297974 0.00143011 -0.018025)
(0.0319556 0.000241281 -0.0151273)
(0.0329471 -0.00089388 -0.0120761)
(0.0328004 -0.00243736 -0.00883419)
(0.0312932 -0.00475248 -0.00538772)
(0.0282176 -0.0080549 -0.00207438)
(0.0235196 -0.0126375 0.000563183)
(0.0155085 -0.0196671 0.00189476)
(0.0108132 -0.0304231 0.00222579)
(-0.0191947 -0.0151802 -0.0288151)
(-0.0272494 -0.00534706 -0.030586)
(-0.0352091 0.000102422 -0.0352091)
(-0.0356716 0.00340095 -0.0403461)
(-0.0317742 0.00585969 -0.0452498)
(-0.0240373 0.00819642 -0.0494897)
(-0.01336 0.0107087 -0.0525383)
(0.00178268 0.0128464 -0.0534686)
(0.0165009 0.0109748 -0.0524702)
(0.0277618 0.00848114 -0.0499544)
(0.0366153 0.00643243 -0.0460582)
(0.0428535 0.0048646 -0.0416038)
(0.0469856 0.00366802 -0.0370875)
(0.0495236 0.00270309 -0.032695)
(0.0505649 0.00184317 -0.0283482)
(0.0499043 0.000867982 -0.0239652)
(0.0471239 -0.000583017 -0.0194739)
(0.0414762 -0.0030851 -0.0147608)
(0.0308334 -0.00774076 -0.00985451)
(0.0193345 -0.0162029 -0.00490939)
(0.0063881 -0.00343397 0.0214756)
(0.0100203 -0.000318122 0.0177639)
(0.0114085 0.00143496 0.0131304)
(0.0100425 0.00188357 0.0100425)
(0.00793923 0.00223412 0.00896936)
(0.00529368 0.00403698 0.00779171)
(-0.00401498 0.00525985 0.0078196)
(-0.0132176 0.00418357 0.00875384)
(-0.0206313 0.00292446 0.00924365)
(-0.0253368 0.00199526 0.00897896)
(-0.0275227 0.00154724 0.00792928)
(-0.0278758 0.00153525 0.00625682)
(-0.0271651 0.00175974 0.00432206)
(-0.025935 0.00197759 0.00251821)
(-0.0244479 0.00204056 0.00112147)
(-0.0226696 0.00190611 0.000437577)
(-0.0202072 0.00156351 0.000453228)
(-0.0165476 0.00102315 0.00109638)
(-0.011313 0.000296432 0.00206391)
(-0.00532487 -0.000578647 0.00242628)
(0.00264326 0.00324809 0.0124384)
(0.00584383 0.00556236 0.0111355)
(0.00776256 0.0062277 0.00908634)
(0.00747962 0.00562934 0.00747962)
(0.00577476 0.0052817 0.00652183)
(0.00373786 0.00769182 0.00573275)
(-0.00203141 0.0106574 0.00633739)
(-0.00931143 0.0097857 0.00767036)
(-0.0161704 0.00721003 0.00883329)
(-0.0209702 0.00450216 0.00943588)
(-0.0234919 0.00268626 0.00912569)
(-0.0243336 0.00205379 0.00774336)
(-0.024244 0.00226219 0.00561134)
(-0.02365 0.00274815 0.00340882)
(-0.0226084 0.00308936 0.00160673)
(-0.0210232 0.00310345 0.000294288)
(-0.0187191 0.00267401 -0.000405241)
(-0.0153224 0.00185028 -0.000498131)
(-0.0105442 0.000663611 -0.000106601)
(-0.00504437 -0.000907867 0.000453026)
(0.00201882 -0.000562328 0.0101095)
(0.00515582 0.00237512 0.0102024)
(0.00739275 0.00524643 0.00927866)
(0.00777956 0.00689349 0.00777956)
(0.00649319 0.00808613 0.00620474)
(0.00473997 0.0111745 0.00492303)
(0.00160028 0.0150223 0.00523523)
(-0.00407692 0.0147474 0.00668102)
(-0.010378 0.0112688 0.00830344)
(-0.0154796 0.00699807 0.00991652)
(-0.0185355 0.00387623 0.0108699)
(-0.019838 0.00256484 0.01048)
(-0.0201669 0.00253 0.00873296)
(-0.0201347 0.00286684 0.0063715)
(-0.0198068 0.00308217 0.00427113)
(-0.0189656 0.00294341 0.00277232)
(-0.0173823 0.00232082 0.00195886)
(-0.0147125 0.001149 0.00185273)
(-0.0105887 -0.000757963 0.00255506)
(-0.00534102 -0.00374746 0.00394258)
(0.00271356 -0.00513973 0.00781651)
(0.00578441 -0.00103461 0.00951524)
(0.00786335 0.00376165 0.00973938)
(0.00866555 0.00747867 0.00866555)
(0.00801816 0.0101857 0.00692925)
(0.00696349 0.0136717 0.00520599)
(0.00559814 0.017736 0.00485687)
(0.00270974 0.0187754 0.00587852)
(-0.0021289 0.0156129 0.00775143)
(-0.00720087 0.0102778 0.0100957)
(-0.0115445 0.00564532 0.0121232)
(-0.014327 0.00333016 0.0129453)
(-0.0155749 0.00297677 0.0121835)
(-0.0160635 0.00316098 0.0102131)
(-0.0163235 0.00296704 0.00800598)
(-0.0162393 0.00224625 0.00630224)
(-0.015513 0.000852617 0.00533198)
(-0.0136654 -0.00160926 0.00524303)
(-0.0104067 -0.00560297 0.00583053)
(-0.00525949 -0.0121424 0.00722349)
(0.00394412 -0.0138709 0.00346365)
(0.00739829 -0.00588077 0.00764563)
(0.00871035 0.00128487 0.00962486)
(0.00941676 0.00710525 0.00941676)
(0.00929069 0.0114192 0.00792165)
(0.0091193 0.0154231 0.00601624)
(0.00917922 0.0193798 0.00516041)
(0.00851659 0.0210085 0.00578585)
(0.00642447 0.0190613 0.00740349)
(0.00326834 0.0147179 0.00959297)
(-0.00119715 0.00943914 0.012115)
(-0.00617588 0.00545196 0.0139284)
(-0.00966742 0.00389468 0.014447)
(-0.0112976 0.00363808 0.0136418)
(-0.0121109 0.00298994 0.0119457)
(-0.0125811 0.00135164 0.0102325)
(-0.0124487 -0.00147472 0.00902937)
(-0.0114054 -0.00599529 0.00826547)
(-0.0091981 -0.0128366 0.0078072)
(-0.00414451 -0.0235612 0.00822238)
(0.00340297 -0.024732 -0.00232764)
(0.00835746 -0.0110123 0.00483019)
(0.00874024 -0.00120824 0.00843422)
(0.0090545 0.00651173 0.0090545)
(0.00926621 0.0121578 0.00774939)
(0.00999901 0.0167576 0.00568328)
(0.0112761 0.0206911 0.00444685)
(0.0122717 0.0224459 0.00475956)
(0.0122709 0.0210672 0.00614614)
(0.0111199 0.0175477 0.00803425)
(0.00852106 0.0133498 0.0101051)
(0.00442548 0.00947625 0.0120149)
(-0.000887948 0.00622839 0.0138551)
(-0.00465163 0.00453018 0.0149194)
(-0.00651343 0.00319261 0.0147851)
(-0.0074763 0.000769345 0.0138425)
(-0.00776611 -0.00347209 0.0125676)
(-0.0073691 -0.0100096 0.0110691)
(-0.00655047 -0.0194207 0.00935585)
(-0.0020617 -0.0333903 0.0083739)
(0.000278625 -0.0332125 -0.00807466)
(0.00693776 -0.0157107 0.00120146)
(0.00592701 -0.00353427 0.00565898)
(0.00603229 0.00574192 0.00603229)
(0.00652169 0.0123511 0.00403883)
(0.00812327 0.0175958 0.00137289)
(0.0104236 0.0220322 -0.000348054)
(0.0128082 0.0237996 -0.000172052)
(0.0146095 0.0222225 0.00125518)
(0.0153361 0.0188932 0.00310829)
(0.0147462 0.015171 0.0050978)
(0.0127521 0.0118283 0.00708029)
(0.00949902 0.00889532 0.00919878)
(0.00567325 0.00613148 0.0115926)
(0.00237757 0.00339933 0.013872)
(0.000307721 7.77681e-05 0.0150663)
(-0.000759933 -0.00482247 0.0145617)
(-0.00114152 -0.0124039 0.0128752)
(-0.00242769 -0.0233809 0.0103015)
(0.000705719 -0.0388439 0.00795712)
(-0.00466048 -0.0355956 -0.0139992)
(0.00106205 -0.0179459 -0.00504234)
(-0.00260406 -0.00362601 -0.00122054)
(-0.00211547 0.00625658 -0.00211547)
(-0.00122278 0.0128115 -0.0052036)
(0.0015717 0.0181852 -0.00878898)
(0.00570287 0.0227193 -0.0110525)
(0.0101168 0.0244499 -0.0110172)
(0.0140344 0.0224058 -0.00942071)
(0.0171923 0.0186623 -0.00711117)
(0.0191281 0.0150393 -0.00457454)
(0.0196781 0.0121279 -0.00204027)
(0.0188884 0.00986854 0.000628404)
(0.0172542 0.00767364 0.00351804)
(0.015145 0.00494979 0.00657349)
(0.0127685 0.00108753 0.0095121)
(0.0103671 -0.0044666 0.0111602)
(0.00812203 -0.0121942 0.0108896)
(0.00394365 -0.0230904 0.00883272)
(0.00440475 -0.0378382 0.00606875)
(-0.0116243 -0.029332 -0.0207943)
(-0.011326 -0.0161611 -0.0154501)
(-0.0169179 -0.00559602 -0.0145504)
(-0.0172192 0.00269161 -0.0172192)
(-0.0150692 0.00834963 -0.0211099)
(-0.0103002 0.0128583 -0.0251897)
(-0.00308435 0.017201 -0.0281718)
(0.00580234 0.019401 -0.0286037)
(0.0137381 0.0169275 -0.0269738)
(0.0204458 0.012819 -0.0240873)
(0.0253462 0.00945888 -0.0205156)
(0.0283476 0.00709345 -0.0168565)
(0.029872 0.00545305 -0.0133141)
(0.0303661 0.00408196 -0.00989339)
(0.0300276 0.00241926 -0.00650273)
(0.0287398 -0.000243205 -0.00310881)
(0.0258978 -0.00435328 0.000191988)
(0.0218086 -0.0100617 0.00220367)
(0.0144569 -0.0180936 0.00257843)
(0.0103237 -0.0295099 0.00174444)
(-0.0227057 -0.0136145 -0.0298103)
(-0.0318837 -0.002622 -0.0315242)
(-0.0403461 0.00340095 -0.0356716)
(-0.0402543 0.00716519 -0.0402543)
(-0.0361764 0.010096 -0.0454819)
(-0.0281757 0.012896 -0.0507107)
(-0.0165025 0.0159458 -0.0548154)
(-0.000222862 0.0187324 -0.0563199)
(0.0173729 0.0164989 -0.0551069)
(0.0298264 0.0130193 -0.0517181)
(0.039098 0.0101638 -0.0466921)
(0.0450708 0.00800601 -0.0412032)
(0.0486176 0.00639518 -0.0358881)
(0.0505333 0.00515013 -0.0309564)
(0.0512076 0.00406631 -0.0264405)
(0.0507015 0.00288259 -0.0223064)
(0.0483555 0.0012684 -0.0182565)
(0.0429906 -0.00137022 -0.013979)
(0.0322831 -0.00628534 -0.00960349)
(0.0203664 -0.0154119 -0.00542684)
(0.00477569 0.0011304 0.0109649)
(0.00747694 0.0021544 0.010214)
(0.00919959 0.00236686 0.00875435)
(0.00896936 0.00223412 0.00793923)
(0.0077119 0.00263566 0.0077119)
(0.0058458 0.00440138 0.00710179)
(-0.00192427 0.00566507 0.00816556)
(-0.0109068 0.00455463 0.00984575)
(-0.0183593 0.00334019 0.0102378)
(-0.0231904 0.00259896 0.00900154)
(-0.0253992 0.00234558 0.00653459)
(-0.0257161 0.00238214 0.00341252)
(-0.0250858 0.00243885 0.000142046)
(-0.024106 0.00242677 -0.00252951)
(-0.022927 0.00239011 -0.0042767)
(-0.021292 0.00229048 -0.00538361)
(-0.0188582 0.00210974 -0.00595005)
(-0.0152355 0.00180895 -0.00611262)
(-0.0101834 0.00136918 -0.00607373)
(-0.00434776 0.000846997 -0.00602605)
(0.00265334 0.00651417 0.00681978)
(0.00502385 0.00663824 0.00718413)
(0.00667115 0.00603245 0.00657274)
(0.00652183 0.0052817 0.00577476)
(0.00507976 0.00538772 0.00507976)
(0.00343205 0.00811006 0.00481146)
(-0.00150788 0.0113814 0.00658467)
(-0.00839867 0.0105677 0.00882219)
(-0.0151785 0.00808999 0.0101408)
(-0.0200459 0.0057688 0.010215)
(-0.0225984 0.00445655 0.00907573)
(-0.023373 0.00421307 0.00693492)
(-0.0231619 0.00460058 0.00420902)
(-0.0224598 0.00507443 0.00148873)
(-0.0213929 0.00527552 -0.000950414)
(-0.0198801 0.0050525 -0.00279759)
(-0.0175977 0.0045003 -0.00412113)
(-0.0142041 0.00361474 -0.00500931)
(-0.00952502 0.00239738 -0.00560032)
(-0.00448463 0.000922772 -0.00592921)